integrator = md
nsteps = 50000
dt = 0.001
nstxout = 1000
nstvout = 0
nstfout = 1000
nstenergy = 100
nstlog = 1000
cutoff-scheme = Verlet
nstlist = 10
verlet-buffer-tolerance = 0.005
coulombtype = PME
rcoulomb = 1.0
ewald-rtol = 0.00001
pme-order = 4
fourierspacing = 0.12
vdwtype = Cut-off
vdw-modifier = None
rvdw = 1.0
DispCorr = EnerPres
pbc = xyz
constraints = h-bonds
constraint-algorithm = lincs
lincs-order = 6
lincs-iter = 2
tc-grps = System
tau-t = 1.0
ref-t = 300
pcoupl = C-rescale
comm-mode = Linear
nstcomm = 100
gen-vel = no
ld-seed = 3030
continuation = yes
tcoupl = v-rescale
nsttcouple = 10
pcoupltype = isotropic
ref-p = 1.0
tau-p = 2.0
compressibility = 4.5e-5
nstpcouple = 10
