[ prot_sort ]
   1    2    3    4    5    6    9   11   10   12   14   13   15   16   17
   7    8   18   19   20   21   24   26   25   27   28   29   30   31   22
  23   32   33   34   35   38   39   40   41   42   43   44   45   46   47
  36   37   48   49   50   51   54   56   55   57   59   58   60   62   61
  63   65   64   66   67   68   52   53   69   70   71   72   75   76   77
  78   73   74   79   80   81   82   85   87   86   88   90   89   91   93
  92   94   96   95   97   98   99   83   84  100  101  102  103  106  107
 111  112  113  114  108  110  109  115  116  117  118  104  119  105
