;
;	File 'topol.top' was generated
;	By user: root (501)
;	On host: Mac.attlocal.net
;	At date: Thu Sep 10 18:57:23 2026
;
;	This is a standalone topology file
;
;	Created by:
;	              :-) GROMACS - gmx pdb2gmx, 2025.4-conda_forge (-:
;	
;	Executable:   /Users/ashujo/Documents/Science/DynaMol/.gromacs/bin.ARM_NEON_ASIMD/gmx
;	Data prefix:  /Users/ashujo/Documents/Science/DynaMol/.gromacs
;	Working dir:  /Users/ashujo/Documents/Science/DynaMol/docs/audit/preparation-gromacs-probes/lysine-basic-variants_hmap
;	Command line:
;	  gmx pdb2gmx -f input.pdb -o processed.pdb -p topol.top -i posre.itp -ff amber99sb-ildn -water tip3p -n mapping.ndx
;	Force field was read from the standard GROMACS share directory.
;

; Include forcefield parameters
#include "amber99sb-ildn.ff/forcefield.itp"

[ moleculetype ]
; Name            nrexcl
Protein_chain_A     3

[ atoms ]
;   nr       type  resnr residue  atom   cgnr     charge       mass  typeB    chargeB      massB
; residue  24 GLU rtp NGLU q  0.0
     1         N3     24    GLU      N      1     0.0017      14.01
     2          H     24    GLU     H1      2     0.2391      1.008
     3          H     24    GLU     H2      3     0.2391      1.008
     4          H     24    GLU     H3      4     0.2391      1.008
     5         CT     24    GLU     CA      5     0.0588      12.01
     6         HP     24    GLU     HA      6     0.1202      1.008
     7         CT     24    GLU     CB      7     0.0909      12.01
     8         HC     24    GLU    HB1      8    -0.0232      1.008
     9         HC     24    GLU    HB2      9    -0.0232      1.008
    10         CT     24    GLU     CG     10    -0.0236      12.01
    11         HC     24    GLU    HG1     11    -0.0315      1.008
    12         HC     24    GLU    HG2     12    -0.0315      1.008
    13          C     24    GLU     CD     13     0.8087      12.01
    14         O2     24    GLU    OE1     14    -0.8189         16
    15         O2     24    GLU    OE2     15    -0.8189         16
    16          C     24    GLU      C     16     0.5621      12.01
    17          O     24    GLU      O     17    -0.5889         16   ; qtot 0
; residue  25 ASN rtp ASN  q  0.0
    18          N     25    ASN      N     18    -0.4157      14.01
    19          H     25    ASN      H     19     0.2719      1.008
    20         CT     25    ASN     CA     20     0.0143      12.01
    21         H1     25    ASN     HA     21     0.1048      1.008
    22         CT     25    ASN     CB     22    -0.2041      12.01
    23         HC     25    ASN    HB1     23     0.0797      1.008
    24         HC     25    ASN    HB2     24     0.0797      1.008
    25          C     25    ASN     CG     25      0.713      12.01
    26          O     25    ASN    OD1     26    -0.5931         16
    27          N     25    ASN    ND2     27    -0.9191      14.01
    28          H     25    ASN   HD21     28     0.4196      1.008
    29          H     25    ASN   HD22     29     0.4196      1.008
    30          C     25    ASN      C     30     0.5973      12.01
    31          O     25    ASN      O     31    -0.5679         16   ; qtot 0
; residue  26 VAL rtp VAL  q  0.0
    32          N     26    VAL      N     32    -0.4157      14.01
    33          H     26    VAL      H     33     0.2719      1.008
    34         CT     26    VAL     CA     34    -0.0875      12.01
    35         H1     26    VAL     HA     35     0.0969      1.008
    36         CT     26    VAL     CB     36     0.2985      12.01
    37         HC     26    VAL     HB     37    -0.0297      1.008
    38         CT     26    VAL    CG1     38    -0.3192      12.01
    39         HC     26    VAL   HG11     39     0.0791      1.008
    40         HC     26    VAL   HG12     40     0.0791      1.008
    41         HC     26    VAL   HG13     41     0.0791      1.008
    42         CT     26    VAL    CG2     42    -0.3192      12.01
    43         HC     26    VAL   HG21     43     0.0791      1.008
    44         HC     26    VAL   HG22     44     0.0791      1.008
    45         HC     26    VAL   HG23     45     0.0791      1.008
    46          C     26    VAL      C     46     0.5973      12.01
    47          O     26    VAL      O     47    -0.5679         16   ; qtot 0
; residue  27 LYN rtp LYN  q  0.0
    48          N     27    LYN      N     48    -0.4157      14.01
    49          H     27    LYN      H     49     0.2719      1.008
    50         CT     27    LYN     CA     50   -0.07206      12.01
    51         H1     27    LYN     HA     51     0.0994      1.008
    52         CT     27    LYN     CB     52   -0.04845      12.01
    53         HC     27    LYN    HB1     53      0.034      1.008
    54         HC     27    LYN    HB2     54      0.034      1.008
    55         CT     27    LYN     CG     55    0.06612      12.01
    56         HC     27    LYN    HG1     56    0.01041      1.008
    57         HC     27    LYN    HG2     57    0.01041      1.008
    58         CT     27    LYN     CD     58   -0.03768      12.01
    59         HC     27    LYN    HD1     59    0.01155      1.008
    60         HC     27    LYN    HD2     60    0.01155      1.008
    61         CT     27    LYN     CE     61    0.32604      12.01
    62         HP     27    LYN    HE1     62   -0.03358      1.008
    63         HP     27    LYN    HE2     63   -0.03358      1.008
    64         N3     27    LYN     NZ     64   -1.03581      14.01
    65          H     27    LYN    HZ1     65    0.38604      1.008
    66          H     27    LYN    HZ2     66    0.38604      1.008
    67          C     27    LYN      C     67     0.5973      12.01
    68          O     27    LYN      O     68    -0.5679         16   ; qtot 0
; residue  28 ALA rtp ALA  q  0.0
    69          N     28    ALA      N     69    -0.4157      14.01
    70          H     28    ALA      H     70     0.2719      1.008
    71         CT     28    ALA     CA     71     0.0337      12.01
    72         H1     28    ALA     HA     72     0.0823      1.008
    73         CT     28    ALA     CB     73    -0.1825      12.01
    74         HC     28    ALA    HB1     74     0.0603      1.008
    75         HC     28    ALA    HB2     75     0.0603      1.008
    76         HC     28    ALA    HB3     76     0.0603      1.008
    77          C     28    ALA      C     77     0.5973      12.01
    78          O     28    ALA      O     78    -0.5679         16   ; qtot 0
; residue  29 LYN rtp LYN  q  0.0
    79          N     29    LYN      N     79    -0.4157      14.01
    80          H     29    LYN      H     80     0.2719      1.008
    81         CT     29    LYN     CA     81   -0.07206      12.01
    82         H1     29    LYN     HA     82     0.0994      1.008
    83         CT     29    LYN     CB     83   -0.04845      12.01
    84         HC     29    LYN    HB1     84      0.034      1.008
    85         HC     29    LYN    HB2     85      0.034      1.008
    86         CT     29    LYN     CG     86    0.06612      12.01
    87         HC     29    LYN    HG1     87    0.01041      1.008
    88         HC     29    LYN    HG2     88    0.01041      1.008
    89         CT     29    LYN     CD     89   -0.03768      12.01
    90         HC     29    LYN    HD1     90    0.01155      1.008
    91         HC     29    LYN    HD2     91    0.01155      1.008
    92         CT     29    LYN     CE     92    0.32604      12.01
    93         HP     29    LYN    HE1     93   -0.03358      1.008
    94         HP     29    LYN    HE2     94   -0.03358      1.008
    95         N3     29    LYN     NZ     95   -1.03581      14.01
    96          H     29    LYN    HZ1     96    0.38604      1.008
    97          H     29    LYN    HZ2     97    0.38604      1.008
    98          C     29    LYN      C     98     0.5973      12.01
    99          O     29    LYN      O     99    -0.5679         16   ; qtot 0
; residue  30 ILE rtp CILE q -1.0
   100          N     30    ILE      N    100    -0.3821      14.01
   101          H     30    ILE      H    101     0.2681      1.008
   102         CT     30    ILE     CA    102      -0.31      12.01
   103         H1     30    ILE     HA    103     0.1375      1.008
   104         CT     30    ILE     CB    104     0.0363      12.01
   105         HC     30    ILE     HB    105     0.0766      1.008
   106         CT     30    ILE    CG2    106    -0.3498      12.01
   107         HC     30    ILE   HG21    107     0.1021      1.008
   108         HC     30    ILE   HG22    108     0.1021      1.008
   109         HC     30    ILE   HG23    109     0.1021      1.008
   110         CT     30    ILE    CG1    110    -0.0323      12.01
   111         HC     30    ILE   HG11    111     0.0321      1.008
   112         HC     30    ILE   HG12    112     0.0321      1.008
   113         CT     30    ILE     CD    113    -0.0699      12.01
   114         HC     30    ILE    HD1    114     0.0196      1.008
   115         HC     30    ILE    HD2    115     0.0196      1.008
   116         HC     30    ILE    HD3    116     0.0196      1.008
   117          C     30    ILE      C    117     0.8343      12.01
   118         O2     30    ILE    OC1    118     -0.819         16
   119         O2     30    ILE    OC2    119     -0.819         16   ; qtot -1

[ bonds ]
;  ai    aj funct            c0            c1            c2            c3
    1     2     1 
    1     3     1 
    1     4     1 
    1     5     1 
    5     6     1 
    5     7     1 
    5    16     1 
    7     8     1 
    7     9     1 
    7    10     1 
   10    11     1 
   10    12     1 
   10    13     1 
   13    14     1 
   13    15     1 
   16    17     1 
   16    18     1 
   18    19     1 
   18    20     1 
   20    21     1 
   20    22     1 
   20    30     1 
   22    23     1 
   22    24     1 
   22    25     1 
   25    26     1 
   25    27     1 
   27    28     1 
   27    29     1 
   30    31     1 
   30    32     1 
   32    33     1 
   32    34     1 
   34    35     1 
   34    36     1 
   34    46     1 
   36    37     1 
   36    38     1 
   36    42     1 
   38    39     1 
   38    40     1 
   38    41     1 
   42    43     1 
   42    44     1 
   42    45     1 
   46    47     1 
   46    48     1 
   48    49     1 
   48    50     1 
   50    51     1 
   50    52     1 
   50    67     1 
   52    53     1 
   52    54     1 
   52    55     1 
   55    56     1 
   55    57     1 
   55    58     1 
   58    59     1 
   58    60     1 
   58    61     1 
   61    62     1 
   61    63     1 
   61    64     1 
   64    65     1 
   64    66     1 
   67    68     1 
   67    69     1 
   69    70     1 
   69    71     1 
   71    72     1 
   71    73     1 
   71    77     1 
   73    74     1 
   73    75     1 
   73    76     1 
   77    78     1 
   77    79     1 
   79    80     1 
   79    81     1 
   81    82     1 
   81    83     1 
   81    98     1 
   83    84     1 
   83    85     1 
   83    86     1 
   86    87     1 
   86    88     1 
   86    89     1 
   89    90     1 
   89    91     1 
   89    92     1 
   92    93     1 
   92    94     1 
   92    95     1 
   95    96     1 
   95    97     1 
   98    99     1 
   98   100     1 
  100   101     1 
  100   102     1 
  102   103     1 
  102   104     1 
  102   117     1 
  104   105     1 
  104   106     1 
  104   110     1 
  106   107     1 
  106   108     1 
  106   109     1 
  110   111     1 
  110   112     1 
  110   113     1 
  113   114     1 
  113   115     1 
  113   116     1 
  117   118     1 
  117   119     1 

[ pairs ]
;  ai    aj funct            c0            c1            c2            c3
    1     8     1 
    1     9     1 
    1    10     1 
    1    17     1 
    1    18     1 
    2     6     1 
    2     7     1 
    2    16     1 
    3     6     1 
    3     7     1 
    3    16     1 
    4     6     1 
    4     7     1 
    4    16     1 
    5    11     1 
    5    12     1 
    5    13     1 
    5    19     1 
    5    20     1 
    6     8     1 
    6     9     1 
    6    10     1 
    6    17     1 
    6    18     1 
    7    14     1 
    7    15     1 
    7    17     1 
    7    18     1 
    8    11     1 
    8    12     1 
    8    13     1 
    8    16     1 
    9    11     1 
    9    12     1 
    9    13     1 
    9    16     1 
   10    16     1 
   11    14     1 
   11    15     1 
   12    14     1 
   12    15     1 
   16    21     1 
   16    22     1 
   16    30     1 
   17    19     1 
   17    20     1 
   18    23     1 
   18    24     1 
   18    25     1 
   18    31     1 
   18    32     1 
   19    21     1 
   19    22     1 
   19    30     1 
   20    26     1 
   20    27     1 
   20    33     1 
   20    34     1 
   21    23     1 
   21    24     1 
   21    25     1 
   21    31     1 
   21    32     1 
   22    28     1 
   22    29     1 
   22    31     1 
   22    32     1 
   23    26     1 
   23    27     1 
   23    30     1 
   24    26     1 
   24    27     1 
   24    30     1 
   25    30     1 
   26    28     1 
   26    29     1 
   30    35     1 
   30    36     1 
   30    46     1 
   31    33     1 
   31    34     1 
   32    37     1 
   32    38     1 
   32    42     1 
   32    47     1 
   32    48     1 
   33    35     1 
   33    36     1 
   33    46     1 
   34    39     1 
   34    40     1 
   34    41     1 
   34    43     1 
   34    44     1 
   34    45     1 
   34    49     1 
   34    50     1 
   35    37     1 
   35    38     1 
   35    42     1 
   35    47     1 
   35    48     1 
   36    47     1 
   36    48     1 
   37    39     1 
   37    40     1 
   37    41     1 
   37    43     1 
   37    44     1 
   37    45     1 
   37    46     1 
   38    43     1 
   38    44     1 
   38    45     1 
   38    46     1 
   39    42     1 
   40    42     1 
   41    42     1 
   42    46     1 
   46    51     1 
   46    52     1 
   46    67     1 
   47    49     1 
   47    50     1 
   48    53     1 
   48    54     1 
   48    55     1 
   48    68     1 
   48    69     1 
   49    51     1 
   49    52     1 
   49    67     1 
   50    56     1 
   50    57     1 
   50    58     1 
   50    70     1 
   50    71     1 
   51    53     1 
   51    54     1 
   51    55     1 
   51    68     1 
   51    69     1 
   52    59     1 
   52    60     1 
   52    61     1 
   52    68     1 
   52    69     1 
   53    56     1 
   53    57     1 
   53    58     1 
   53    67     1 
   54    56     1 
   54    57     1 
   54    58     1 
   54    67     1 
   55    62     1 
   55    63     1 
   55    64     1 
   55    67     1 
   56    59     1 
   56    60     1 
   56    61     1 
   57    59     1 
   57    60     1 
   57    61     1 
   58    65     1 
   58    66     1 
   59    62     1 
   59    63     1 
   59    64     1 
   60    62     1 
   60    63     1 
   60    64     1 
   62    65     1 
   62    66     1 
   63    65     1 
   63    66     1 
   67    72     1 
   67    73     1 
   67    77     1 
   68    70     1 
   68    71     1 
   69    74     1 
   69    75     1 
   69    76     1 
   69    78     1 
   69    79     1 
   70    72     1 
   70    73     1 
   70    77     1 
   71    80     1 
   71    81     1 
   72    74     1 
   72    75     1 
   72    76     1 
   72    78     1 
   72    79     1 
   73    78     1 
   73    79     1 
   74    77     1 
   75    77     1 
   76    77     1 
   77    82     1 
   77    83     1 
   77    98     1 
   78    80     1 
   78    81     1 
   79    84     1 
   79    85     1 
   79    86     1 
   79    99     1 
   79   100     1 
   80    82     1 
   80    83     1 
   80    98     1 
   81    87     1 
   81    88     1 
   81    89     1 
   81   101     1 
   81   102     1 
   82    84     1 
   82    85     1 
   82    86     1 
   82    99     1 
   82   100     1 
   83    90     1 
   83    91     1 
   83    92     1 
   83    99     1 
   83   100     1 
   84    87     1 
   84    88     1 
   84    89     1 
   84    98     1 
   85    87     1 
   85    88     1 
   85    89     1 
   85    98     1 
   86    93     1 
   86    94     1 
   86    95     1 
   86    98     1 
   87    90     1 
   87    91     1 
   87    92     1 
   88    90     1 
   88    91     1 
   88    92     1 
   89    96     1 
   89    97     1 
   90    93     1 
   90    94     1 
   90    95     1 
   91    93     1 
   91    94     1 
   91    95     1 
   93    96     1 
   93    97     1 
   94    96     1 
   94    97     1 
   98   103     1 
   98   104     1 
   98   117     1 
   99   101     1 
   99   102     1 
  100   105     1 
  100   106     1 
  100   110     1 
  100   118     1 
  100   119     1 
  101   103     1 
  101   104     1 
  101   117     1 
  102   107     1 
  102   108     1 
  102   109     1 
  102   111     1 
  102   112     1 
  102   113     1 
  103   105     1 
  103   106     1 
  103   110     1 
  103   118     1 
  103   119     1 
  104   114     1 
  104   115     1 
  104   116     1 
  104   118     1 
  104   119     1 
  105   107     1 
  105   108     1 
  105   109     1 
  105   111     1 
  105   112     1 
  105   113     1 
  105   117     1 
  106   111     1 
  106   112     1 
  106   113     1 
  106   117     1 
  107   110     1 
  108   110     1 
  109   110     1 
  110   117     1 
  111   114     1 
  111   115     1 
  111   116     1 
  112   114     1 
  112   115     1 
  112   116     1 

[ angles ]
;  ai    aj    ak funct            c0            c1            c2            c3
    2     1     3     1 
    2     1     4     1 
    2     1     5     1 
    3     1     4     1 
    3     1     5     1 
    4     1     5     1 
    1     5     6     1 
    1     5     7     1 
    1     5    16     1 
    6     5     7     1 
    6     5    16     1 
    7     5    16     1 
    5     7     8     1 
    5     7     9     1 
    5     7    10     1 
    8     7     9     1 
    8     7    10     1 
    9     7    10     1 
    7    10    11     1 
    7    10    12     1 
    7    10    13     1 
   11    10    12     1 
   11    10    13     1 
   12    10    13     1 
   10    13    14     1 
   10    13    15     1 
   14    13    15     1 
    5    16    17     1 
    5    16    18     1 
   17    16    18     1 
   16    18    19     1 
   16    18    20     1 
   19    18    20     1 
   18    20    21     1 
   18    20    22     1 
   18    20    30     1 
   21    20    22     1 
   21    20    30     1 
   22    20    30     1 
   20    22    23     1 
   20    22    24     1 
   20    22    25     1 
   23    22    24     1 
   23    22    25     1 
   24    22    25     1 
   22    25    26     1 
   22    25    27     1 
   26    25    27     1 
   25    27    28     1 
   25    27    29     1 
   28    27    29     1 
   20    30    31     1 
   20    30    32     1 
   31    30    32     1 
   30    32    33     1 
   30    32    34     1 
   33    32    34     1 
   32    34    35     1 
   32    34    36     1 
   32    34    46     1 
   35    34    36     1 
   35    34    46     1 
   36    34    46     1 
   34    36    37     1 
   34    36    38     1 
   34    36    42     1 
   37    36    38     1 
   37    36    42     1 
   38    36    42     1 
   36    38    39     1 
   36    38    40     1 
   36    38    41     1 
   39    38    40     1 
   39    38    41     1 
   40    38    41     1 
   36    42    43     1 
   36    42    44     1 
   36    42    45     1 
   43    42    44     1 
   43    42    45     1 
   44    42    45     1 
   34    46    47     1 
   34    46    48     1 
   47    46    48     1 
   46    48    49     1 
   46    48    50     1 
   49    48    50     1 
   48    50    51     1 
   48    50    52     1 
   48    50    67     1 
   51    50    52     1 
   51    50    67     1 
   52    50    67     1 
   50    52    53     1 
   50    52    54     1 
   50    52    55     1 
   53    52    54     1 
   53    52    55     1 
   54    52    55     1 
   52    55    56     1 
   52    55    57     1 
   52    55    58     1 
   56    55    57     1 
   56    55    58     1 
   57    55    58     1 
   55    58    59     1 
   55    58    60     1 
   55    58    61     1 
   59    58    60     1 
   59    58    61     1 
   60    58    61     1 
   58    61    62     1 
   58    61    63     1 
   58    61    64     1 
   62    61    63     1 
   62    61    64     1 
   63    61    64     1 
   61    64    65     1 
   61    64    66     1 
   65    64    66     1 
   50    67    68     1 
   50    67    69     1 
   68    67    69     1 
   67    69    70     1 
   67    69    71     1 
   70    69    71     1 
   69    71    72     1 
   69    71    73     1 
   69    71    77     1 
   72    71    73     1 
   72    71    77     1 
   73    71    77     1 
   71    73    74     1 
   71    73    75     1 
   71    73    76     1 
   74    73    75     1 
   74    73    76     1 
   75    73    76     1 
   71    77    78     1 
   71    77    79     1 
   78    77    79     1 
   77    79    80     1 
   77    79    81     1 
   80    79    81     1 
   79    81    82     1 
   79    81    83     1 
   79    81    98     1 
   82    81    83     1 
   82    81    98     1 
   83    81    98     1 
   81    83    84     1 
   81    83    85     1 
   81    83    86     1 
   84    83    85     1 
   84    83    86     1 
   85    83    86     1 
   83    86    87     1 
   83    86    88     1 
   83    86    89     1 
   87    86    88     1 
   87    86    89     1 
   88    86    89     1 
   86    89    90     1 
   86    89    91     1 
   86    89    92     1 
   90    89    91     1 
   90    89    92     1 
   91    89    92     1 
   89    92    93     1 
   89    92    94     1 
   89    92    95     1 
   93    92    94     1 
   93    92    95     1 
   94    92    95     1 
   92    95    96     1 
   92    95    97     1 
   96    95    97     1 
   81    98    99     1 
   81    98   100     1 
   99    98   100     1 
   98   100   101     1 
   98   100   102     1 
  101   100   102     1 
  100   102   103     1 
  100   102   104     1 
  100   102   117     1 
  103   102   104     1 
  103   102   117     1 
  104   102   117     1 
  102   104   105     1 
  102   104   106     1 
  102   104   110     1 
  105   104   106     1 
  105   104   110     1 
  106   104   110     1 
  104   106   107     1 
  104   106   108     1 
  104   106   109     1 
  107   106   108     1 
  107   106   109     1 
  108   106   109     1 
  104   110   111     1 
  104   110   112     1 
  104   110   113     1 
  111   110   112     1 
  111   110   113     1 
  112   110   113     1 
  110   113   114     1 
  110   113   115     1 
  110   113   116     1 
  114   113   115     1 
  114   113   116     1 
  115   113   116     1 
  102   117   118     1 
  102   117   119     1 
  118   117   119     1 

[ dihedrals ]
;  ai    aj    ak    al funct            c0            c1            c2            c3            c4            c5
    2     1     5     6     9 
    2     1     5     7     9 
    2     1     5    16     9 
    3     1     5     6     9 
    3     1     5     7     9 
    3     1     5    16     9 
    4     1     5     6     9 
    4     1     5     7     9 
    4     1     5    16     9 
    1     5     7     8     9 
    1     5     7     9     9 
    1     5     7    10     9 
    6     5     7     8     9 
    6     5     7     9     9 
    6     5     7    10     9 
   16     5     7     8     9 
   16     5     7     9     9 
   16     5     7    10     9 
    1     5    16    17     9 
    1     5    16    18     9 
    6     5    16    17     9 
    6     5    16    18     9 
    7     5    16    17     9 
    7     5    16    18     9 
    5     7    10    11     9 
    5     7    10    12     9 
    5     7    10    13     9 
    8     7    10    11     9 
    8     7    10    12     9 
    8     7    10    13     9 
    9     7    10    11     9 
    9     7    10    12     9 
    9     7    10    13     9 
    7    10    13    14     9 
    7    10    13    15     9 
   11    10    13    14     9 
   11    10    13    15     9 
   12    10    13    14     9 
   12    10    13    15     9 
    5    16    18    19     9 
    5    16    18    20     9 
   17    16    18    19     9 
   17    16    18    20     9 
   16    18    20    21     9 
   16    18    20    22     9 
   16    18    20    30     9 
   19    18    20    21     9 
   19    18    20    22     9 
   19    18    20    30     9 
   30    20    22    25     9    torsion_ASN_C_CA_CB_CG_mult1
   30    20    22    25     9    torsion_ASN_C_CA_CB_CG_mult2
   30    20    22    25     9    torsion_ASN_C_CA_CB_CG_mult3
   30    20    22    25     9    torsion_ASN_C_CA_CB_CG_mult4
   30    20    22    25     9    torsion_ASN_C_CA_CB_CG_mult5
   30    20    22    25     9    torsion_ASN_C_CA_CB_CG_mult6
   18    20    22    23     9 
   18    20    22    24     9 
   18    20    22    25     9 
   21    20    22    23     9 
   21    20    22    24     9 
   21    20    22    25     9 
   30    20    22    23     9 
   30    20    22    24     9 
   18    20    30    31     9 
   18    20    30    32     9 
   21    20    30    31     9 
   21    20    30    32     9 
   22    20    30    31     9 
   22    20    30    32     9 
   20    22    25    27     9    torsion_ASN_CA_CB_CG_ND2_mult1
   20    22    25    27     9    torsion_ASN_CA_CB_CG_ND2_mult2
   20    22    25    27     9    torsion_ASN_CA_CB_CG_ND2_mult3
   20    22    25    27     9    torsion_ASN_CA_CB_CG_ND2_mult4
   20    22    25    27     9    torsion_ASN_CA_CB_CG_ND2_mult5
   20    22    25    27     9    torsion_ASN_CA_CB_CG_ND2_mult6
   20    22    25    26     9 
   23    22    25    26     9 
   23    22    25    27     9 
   24    22    25    26     9 
   24    22    25    27     9 
   22    25    27    28     9 
   22    25    27    29     9 
   26    25    27    28     9 
   26    25    27    29     9 
   20    30    32    33     9 
   20    30    32    34     9 
   31    30    32    33     9 
   31    30    32    34     9 
   30    32    34    35     9 
   30    32    34    36     9 
   30    32    34    46     9 
   33    32    34    35     9 
   33    32    34    36     9 
   33    32    34    46     9 
   32    34    36    37     9 
   32    34    36    38     9 
   32    34    36    42     9 
   35    34    36    37     9 
   35    34    36    38     9 
   35    34    36    42     9 
   46    34    36    37     9 
   46    34    36    38     9 
   46    34    36    42     9 
   32    34    46    47     9 
   32    34    46    48     9 
   35    34    46    47     9 
   35    34    46    48     9 
   36    34    46    47     9 
   36    34    46    48     9 
   34    36    38    39     9 
   34    36    38    40     9 
   34    36    38    41     9 
   37    36    38    39     9 
   37    36    38    40     9 
   37    36    38    41     9 
   42    36    38    39     9 
   42    36    38    40     9 
   42    36    38    41     9 
   34    36    42    43     9 
   34    36    42    44     9 
   34    36    42    45     9 
   37    36    42    43     9 
   37    36    42    44     9 
   37    36    42    45     9 
   38    36    42    43     9 
   38    36    42    44     9 
   38    36    42    45     9 
   34    46    48    49     9 
   34    46    48    50     9 
   47    46    48    49     9 
   47    46    48    50     9 
   46    48    50    51     9 
   46    48    50    52     9 
   46    48    50    67     9 
   49    48    50    51     9 
   49    48    50    52     9 
   49    48    50    67     9 
   48    50    52    53     9 
   48    50    52    54     9 
   48    50    52    55     9 
   51    50    52    53     9 
   51    50    52    54     9 
   51    50    52    55     9 
   67    50    52    53     9 
   67    50    52    54     9 
   67    50    52    55     9 
   48    50    67    68     9 
   48    50    67    69     9 
   51    50    67    68     9 
   51    50    67    69     9 
   52    50    67    68     9 
   52    50    67    69     9 
   50    52    55    56     9 
   50    52    55    57     9 
   50    52    55    58     9 
   53    52    55    56     9 
   53    52    55    57     9 
   53    52    55    58     9 
   54    52    55    56     9 
   54    52    55    57     9 
   54    52    55    58     9 
   52    55    58    59     9 
   52    55    58    60     9 
   52    55    58    61     9 
   56    55    58    59     9 
   56    55    58    60     9 
   56    55    58    61     9 
   57    55    58    59     9 
   57    55    58    60     9 
   57    55    58    61     9 
   55    58    61    62     9 
   55    58    61    63     9 
   55    58    61    64     9 
   59    58    61    62     9 
   59    58    61    63     9 
   59    58    61    64     9 
   60    58    61    62     9 
   60    58    61    63     9 
   60    58    61    64     9 
   58    61    64    65     9 
   58    61    64    66     9 
   62    61    64    65     9 
   62    61    64    66     9 
   63    61    64    65     9 
   63    61    64    66     9 
   50    67    69    70     9 
   50    67    69    71     9 
   68    67    69    70     9 
   68    67    69    71     9 
   67    69    71    72     9 
   67    69    71    73     9 
   67    69    71    77     9 
   70    69    71    72     9 
   70    69    71    73     9 
   70    69    71    77     9 
   69    71    73    74     9 
   69    71    73    75     9 
   69    71    73    76     9 
   72    71    73    74     9 
   72    71    73    75     9 
   72    71    73    76     9 
   77    71    73    74     9 
   77    71    73    75     9 
   77    71    73    76     9 
   69    71    77    78     9 
   69    71    77    79     9 
   72    71    77    78     9 
   72    71    77    79     9 
   73    71    77    78     9 
   73    71    77    79     9 
   71    77    79    80     9 
   71    77    79    81     9 
   78    77    79    80     9 
   78    77    79    81     9 
   77    79    81    82     9 
   77    79    81    83     9 
   77    79    81    98     9 
   80    79    81    82     9 
   80    79    81    83     9 
   80    79    81    98     9 
   79    81    83    84     9 
   79    81    83    85     9 
   79    81    83    86     9 
   82    81    83    84     9 
   82    81    83    85     9 
   82    81    83    86     9 
   98    81    83    84     9 
   98    81    83    85     9 
   98    81    83    86     9 
   79    81    98    99     9 
   79    81    98   100     9 
   82    81    98    99     9 
   82    81    98   100     9 
   83    81    98    99     9 
   83    81    98   100     9 
   81    83    86    87     9 
   81    83    86    88     9 
   81    83    86    89     9 
   84    83    86    87     9 
   84    83    86    88     9 
   84    83    86    89     9 
   85    83    86    87     9 
   85    83    86    88     9 
   85    83    86    89     9 
   83    86    89    90     9 
   83    86    89    91     9 
   83    86    89    92     9 
   87    86    89    90     9 
   87    86    89    91     9 
   87    86    89    92     9 
   88    86    89    90     9 
   88    86    89    91     9 
   88    86    89    92     9 
   86    89    92    93     9 
   86    89    92    94     9 
   86    89    92    95     9 
   90    89    92    93     9 
   90    89    92    94     9 
   90    89    92    95     9 
   91    89    92    93     9 
   91    89    92    94     9 
   91    89    92    95     9 
   89    92    95    96     9 
   89    92    95    97     9 
   93    92    95    96     9 
   93    92    95    97     9 
   94    92    95    96     9 
   94    92    95    97     9 
   81    98   100   101     9 
   81    98   100   102     9 
   99    98   100   101     9 
   99    98   100   102     9 
   98   100   102   103     9 
   98   100   102   104     9 
   98   100   102   117     9 
  101   100   102   103     9 
  101   100   102   104     9 
  101   100   102   117     9 
  100   102   104   106     9    torsion_ILE_N_CA_CB_CG2_mult1
  100   102   104   106     9    torsion_ILE_N_CA_CB_CG2_mult2
  100   102   104   105     9 
  100   102   104   110     9 
  103   102   104   105     9 
  103   102   104   106     9 
  103   102   104   110     9 
  117   102   104   105     9 
  117   102   104   106     9 
  117   102   104   110     9 
  100   102   117   118     9 
  100   102   117   119     9 
  103   102   117   118     9 
  103   102   117   119     9 
  104   102   117   118     9 
  104   102   117   119     9 
  102   104   106   107     9 
  102   104   106   108     9 
  102   104   106   109     9 
  105   104   106   107     9 
  105   104   106   108     9 
  105   104   106   109     9 
  110   104   106   107     9 
  110   104   106   108     9 
  110   104   106   109     9 
  102   104   110   111     9 
  102   104   110   112     9 
  102   104   110   113     9 
  105   104   110   111     9 
  105   104   110   112     9 
  105   104   110   113     9 
  106   104   110   111     9 
  106   104   110   112     9 
  106   104   110   113     9 
  104   110   113   114     9 
  104   110   113   115     9 
  104   110   113   116     9 
  111   110   113   114     9 
  111   110   113   115     9 
  111   110   113   116     9 
  112   110   113   114     9 
  112   110   113   115     9 
  112   110   113   116     9 

[ dihedrals ]
;  ai    aj    ak    al funct            c0            c1            c2            c3
    5    18    16    17     4 
   10    14    13    15     4 
   16    20    18    19     4 
   20    32    30    31     4 
   22    27    25    26     4 
   25    28    27    29     4 
   30    34    32    33     4 
   34    48    46    47     4 
   46    50    48    49     4 
   50    69    67    68     4 
   67    71    69    70     4 
   71    79    77    78     4 
   77    81    79    80     4 
   81   100    98    99     4 
   98   102   100   101     4 
  102   118   117   119     4 

; Include Position restraint file
#ifdef POSRES
#include "posre.itp"
#endif

; Include water topology
#include "amber99sb-ildn.ff/tip3p.itp"

#ifdef POSRES_WATER
; Position restraint for each water oxygen
[ position_restraints ]
;  i funct       fcx        fcy        fcz
   1    1       1000       1000       1000
#endif

; Include topology for ions
#include "amber99sb-ildn.ff/ions.itp"

[ system ]
; Name
Protein

[ molecules ]
; Compound        #mols
Protein_chain_A     1
