[ prot_sort ]
   1    2    3    4    5    6    9   11   10   12   13   14   15   16   17
  18   19   20   21    7    8   22   23   24   25   28   30   29   31   33
  32   34   35   36   37   26   27   38   39   40   41   44   45   46   47
  48   49   50   51   52   53   42   43   54   55   56   57   60   62   61
  63   65   64   66   67   68   69   58   59   70   81   83   82   78   80
  79   75   77   76   71   72   73   74   84   85   86   87   90   92   91
  93   94   88   89   95   96   97   98  101  103  102  104  105  106  107
  99  100  108  109  110  111  114  115  118  119  120  121  116  117  112
 122  113
