integrator = sd
nsteps = 5000
dt = 0.001
nstxout = 100
nstvout = 0
nstfout = 100
nstenergy = 100
nstlog = 100
cutoff-scheme = Verlet
nstlist = 10
verlet-buffer-tolerance = 0.005
coulombtype = PME
rcoulomb = 1.0
ewald-rtol = 0.00001
pme-order = 4
fourierspacing = 0.12
vdwtype = Cut-off
vdw-modifier = None
rvdw = 1.0
DispCorr = EnerPres
pbc = xyz
constraints = h-bonds
constraint-algorithm = lincs
lincs-order = 6
lincs-iter = 2
tc-grps = System
tau-t = 1.0
ref-t = 300
pcoupl = no
comm-mode = Linear
nstcomm = 100
gen-vel = yes
gen-temp = 300
gen-seed = 2029
ld-seed = 2030
continuation = yes
