[ prot_sort ]
   1    2    3    4    5    6    9   11   10   12   13   14   15   16   17
  18   19   20   21    7    8   22   23   24   25   28   30   29   31   33
  32   34   35   36   26   27   37   38   39   40   43   44   45   46   47
  48   49   50   51   52   41   42   53   54   55   56   59   61   60   62
  64   63   65   66   67   57   58   68   79   81   80   76   78   77   73
  75   74   69   70   71   72   82   83   84   85   88   90   89   91   92
  86   87   93   94   95   96   99  101  100  102  103  104   97   98  105
 106  107  108  111  112  115  116  117  118  113  114  109  119  110
