;
;	File 'topol.top' was generated
;	By user: root (501)
;	On host: Mac.attlocal.net
;	At date: Thu Sep 10 18:57:23 2026
;
;	This is a standalone topology file
;
;	Created by:
;	              :-) GROMACS - gmx pdb2gmx, 2025.4-conda_forge (-:
;	
;	Executable:   /Users/ashujo/Documents/Science/DynaMol/.gromacs/bin.ARM_NEON_ASIMD/gmx
;	Data prefix:  /Users/ashujo/Documents/Science/DynaMol/.gromacs
;	Working dir:  /Users/ashujo/Documents/Science/DynaMol/docs/audit/preparation-gromacs-probes/acidic-neutral-variants_hmap
;	Command line:
;	  gmx pdb2gmx -f input.pdb -o processed.pdb -p topol.top -i posre.itp -ff amber99sb-ildn -water tip3p -n mapping.ndx
;	Force field was read from the standard GROMACS share directory.
;

; Include forcefield parameters
#include "amber99sb-ildn.ff/forcefield.itp"

[ moleculetype ]
; Name            nrexcl
Protein_chain_A     3

[ atoms ]
;   nr       type  resnr residue  atom   cgnr     charge       mass  typeB    chargeB      massB
; residue  15 LEU rtp NLEU q +1.0
     1         N3     15    LEU      N      1      0.101      14.01
     2          H     15    LEU     H1      2     0.2148      1.008
     3          H     15    LEU     H2      3     0.2148      1.008
     4          H     15    LEU     H3      4     0.2148      1.008
     5         CT     15    LEU     CA      5     0.0104      12.01
     6         HP     15    LEU     HA      6     0.1053      1.008
     7         CT     15    LEU     CB      7    -0.0244      12.01
     8         HC     15    LEU    HB1      8     0.0256      1.008
     9         HC     15    LEU    HB2      9     0.0256      1.008
    10         CT     15    LEU     CG     10     0.3421      12.01
    11         HC     15    LEU     HG     11     -0.038      1.008
    12         CT     15    LEU    CD1     12    -0.4106      12.01
    13         HC     15    LEU   HD11     13      0.098      1.008
    14         HC     15    LEU   HD12     14      0.098      1.008
    15         HC     15    LEU   HD13     15      0.098      1.008
    16         CT     15    LEU    CD2     16    -0.4104      12.01
    17         HC     15    LEU   HD21     17      0.098      1.008
    18         HC     15    LEU   HD22     18      0.098      1.008
    19         HC     15    LEU   HD23     19      0.098      1.008
    20          C     15    LEU      C     20     0.6123      12.01
    21          O     15    LEU      O     21    -0.5713         16   ; qtot 1
; residue  16 GLU rtp GLU  q -1.0
    22          N     16    GLU      N     22    -0.5163      14.01
    23          H     16    GLU      H     23     0.2936      1.008
    24         CT     16    GLU     CA     24     0.0397      12.01
    25         H1     16    GLU     HA     25     0.1105      1.008
    26         CT     16    GLU     CB     26      0.056      12.01
    27         HC     16    GLU    HB1     27    -0.0173      1.008
    28         HC     16    GLU    HB2     28    -0.0173      1.008
    29         CT     16    GLU     CG     29     0.0136      12.01
    30         HC     16    GLU    HG1     30    -0.0425      1.008
    31         HC     16    GLU    HG2     31    -0.0425      1.008
    32          C     16    GLU     CD     32     0.8054      12.01
    33         O2     16    GLU    OE1     33    -0.8188         16
    34         O2     16    GLU    OE2     34    -0.8188         16
    35          C     16    GLU      C     35     0.5366      12.01
    36          O     16    GLU      O     36    -0.5819         16   ; qtot 0
; residue  17 VAL rtp VAL  q  0.0
    37          N     17    VAL      N     37    -0.4157      14.01
    38          H     17    VAL      H     38     0.2719      1.008
    39         CT     17    VAL     CA     39    -0.0875      12.01
    40         H1     17    VAL     HA     40     0.0969      1.008
    41         CT     17    VAL     CB     41     0.2985      12.01
    42         HC     17    VAL     HB     42    -0.0297      1.008
    43         CT     17    VAL    CG1     43    -0.3192      12.01
    44         HC     17    VAL   HG11     44     0.0791      1.008
    45         HC     17    VAL   HG12     45     0.0791      1.008
    46         HC     17    VAL   HG13     46     0.0791      1.008
    47         CT     17    VAL    CG2     47    -0.3192      12.01
    48         HC     17    VAL   HG21     48     0.0791      1.008
    49         HC     17    VAL   HG22     49     0.0791      1.008
    50         HC     17    VAL   HG23     50     0.0791      1.008
    51          C     17    VAL      C     51     0.5973      12.01
    52          O     17    VAL      O     52    -0.5679         16   ; qtot 0
; residue  18 GLU rtp GLU  q -1.0
    53          N     18    GLU      N     53    -0.5163      14.01
    54          H     18    GLU      H     54     0.2936      1.008
    55         CT     18    GLU     CA     55     0.0397      12.01
    56         H1     18    GLU     HA     56     0.1105      1.008
    57         CT     18    GLU     CB     57      0.056      12.01
    58         HC     18    GLU    HB1     58    -0.0173      1.008
    59         HC     18    GLU    HB2     59    -0.0173      1.008
    60         CT     18    GLU     CG     60     0.0136      12.01
    61         HC     18    GLU    HG1     61    -0.0425      1.008
    62         HC     18    GLU    HG2     62    -0.0425      1.008
    63          C     18    GLU     CD     63     0.8054      12.01
    64         O2     18    GLU    OE1     64    -0.8188         16
    65         O2     18    GLU    OE2     65    -0.8188         16
    66          C     18    GLU      C     66     0.5366      12.01
    67          O     18    GLU      O     67    -0.5819         16   ; qtot -1
; residue  19 PRO rtp PRO  q  0.0
    68          N     19    PRO      N     68    -0.2548      14.01
    69         CT     19    PRO     CD     69     0.0192      12.01
    70         H1     19    PRO    HD1     70     0.0391      1.008
    71         H1     19    PRO    HD2     71     0.0391      1.008
    72         CT     19    PRO     CG     72     0.0189      12.01
    73         HC     19    PRO    HG1     73     0.0213      1.008
    74         HC     19    PRO    HG2     74     0.0213      1.008
    75         CT     19    PRO     CB     75     -0.007      12.01
    76         HC     19    PRO    HB1     76     0.0253      1.008
    77         HC     19    PRO    HB2     77     0.0253      1.008
    78         CT     19    PRO     CA     78    -0.0266      12.01
    79         H1     19    PRO     HA     79     0.0641      1.008
    80          C     19    PRO      C     80     0.5896      12.01
    81          O     19    PRO      O     81    -0.5748         16   ; qtot -1
; residue  20 SER rtp SER  q  0.0
    82          N     20    SER      N     82    -0.4157      14.01
    83          H     20    SER      H     83     0.2719      1.008
    84         CT     20    SER     CA     84    -0.0249      12.01
    85         H1     20    SER     HA     85     0.0843      1.008
    86         CT     20    SER     CB     86     0.2117      12.01
    87         H1     20    SER    HB1     87     0.0352      1.008
    88         H1     20    SER    HB2     88     0.0352      1.008
    89         OH     20    SER     OG     89    -0.6546         16
    90         HO     20    SER     HG     90     0.4275      1.008
    91          C     20    SER      C     91     0.5973      12.01
    92          O     20    SER      O     92    -0.5679         16   ; qtot -1
; residue  21 ASP rtp ASP  q -1.0
    93          N     21    ASP      N     93    -0.5163      14.01
    94          H     21    ASP      H     94     0.2936      1.008
    95         CT     21    ASP     CA     95     0.0381      12.01
    96         H1     21    ASP     HA     96      0.088      1.008
    97         CT     21    ASP     CB     97    -0.0303      12.01
    98         HC     21    ASP    HB1     98    -0.0122      1.008
    99         HC     21    ASP    HB2     99    -0.0122      1.008
   100          C     21    ASP     CG    100     0.7994      12.01
   101         O2     21    ASP    OD1    101    -0.8014         16
   102         O2     21    ASP    OD2    102    -0.8014         16
   103          C     21    ASP      C    103     0.5366      12.01
   104          O     21    ASP      O    104    -0.5819         16   ; qtot -2
; residue  22 THR rtp CTHR q -1.0
   105          N     22    THR      N    105    -0.3821      14.01
   106          H     22    THR      H    106     0.2681      1.008
   107         CT     22    THR     CA    107     -0.242      12.01
   108         H1     22    THR     HA    108     0.1207      1.008
   109         CT     22    THR     CB    109     0.3025      12.01
   110         H1     22    THR     HB    110     0.0078      1.008
   111         CT     22    THR    CG2    111    -0.1853      12.01
   112         HC     22    THR   HG21    112     0.0586      1.008
   113         HC     22    THR   HG22    113     0.0586      1.008
   114         HC     22    THR   HG23    114     0.0586      1.008
   115         OH     22    THR    OG1    115    -0.6496         16
   116         HO     22    THR    HG1    116     0.4119      1.008
   117          C     22    THR      C    117      0.781      12.01
   118         O2     22    THR    OC1    118    -0.8044         16
   119         O2     22    THR    OC2    119    -0.8044         16   ; qtot -3

[ bonds ]
;  ai    aj funct            c0            c1            c2            c3
    1     2     1 
    1     3     1 
    1     4     1 
    1     5     1 
    5     6     1 
    5     7     1 
    5    20     1 
    7     8     1 
    7     9     1 
    7    10     1 
   10    11     1 
   10    12     1 
   10    16     1 
   12    13     1 
   12    14     1 
   12    15     1 
   16    17     1 
   16    18     1 
   16    19     1 
   20    21     1 
   20    22     1 
   22    23     1 
   22    24     1 
   24    25     1 
   24    26     1 
   24    35     1 
   26    27     1 
   26    28     1 
   26    29     1 
   29    30     1 
   29    31     1 
   29    32     1 
   32    33     1 
   32    34     1 
   35    36     1 
   35    37     1 
   37    38     1 
   37    39     1 
   39    40     1 
   39    41     1 
   39    51     1 
   41    42     1 
   41    43     1 
   41    47     1 
   43    44     1 
   43    45     1 
   43    46     1 
   47    48     1 
   47    49     1 
   47    50     1 
   51    52     1 
   51    53     1 
   53    54     1 
   53    55     1 
   55    56     1 
   55    57     1 
   55    66     1 
   57    58     1 
   57    59     1 
   57    60     1 
   60    61     1 
   60    62     1 
   60    63     1 
   63    64     1 
   63    65     1 
   66    67     1 
   66    68     1 
   68    69     1 
   68    78     1 
   69    70     1 
   69    71     1 
   69    72     1 
   72    73     1 
   72    74     1 
   72    75     1 
   75    76     1 
   75    77     1 
   75    78     1 
   78    79     1 
   78    80     1 
   80    81     1 
   80    82     1 
   82    83     1 
   82    84     1 
   84    85     1 
   84    86     1 
   84    91     1 
   86    87     1 
   86    88     1 
   86    89     1 
   89    90     1 
   91    92     1 
   91    93     1 
   93    94     1 
   93    95     1 
   95    96     1 
   95    97     1 
   95   103     1 
   97    98     1 
   97    99     1 
   97   100     1 
  100   101     1 
  100   102     1 
  103   104     1 
  103   105     1 
  105   106     1 
  105   107     1 
  107   108     1 
  107   109     1 
  107   117     1 
  109   110     1 
  109   111     1 
  109   115     1 
  111   112     1 
  111   113     1 
  111   114     1 
  115   116     1 
  117   118     1 
  117   119     1 

[ pairs ]
;  ai    aj funct            c0            c1            c2            c3
    1     8     1 
    1     9     1 
    1    10     1 
    1    21     1 
    1    22     1 
    2     6     1 
    2     7     1 
    2    20     1 
    3     6     1 
    3     7     1 
    3    20     1 
    4     6     1 
    4     7     1 
    4    20     1 
    5    11     1 
    5    12     1 
    5    16     1 
    5    23     1 
    5    24     1 
    6     8     1 
    6     9     1 
    6    10     1 
    6    21     1 
    6    22     1 
    7    13     1 
    7    14     1 
    7    15     1 
    7    17     1 
    7    18     1 
    7    19     1 
    7    21     1 
    7    22     1 
    8    11     1 
    8    12     1 
    8    16     1 
    8    20     1 
    9    11     1 
    9    12     1 
    9    16     1 
    9    20     1 
   10    20     1 
   11    13     1 
   11    14     1 
   11    15     1 
   11    17     1 
   11    18     1 
   11    19     1 
   12    17     1 
   12    18     1 
   12    19     1 
   13    16     1 
   14    16     1 
   15    16     1 
   20    25     1 
   20    26     1 
   20    35     1 
   21    23     1 
   21    24     1 
   22    27     1 
   22    28     1 
   22    29     1 
   22    36     1 
   22    37     1 
   23    25     1 
   23    26     1 
   23    35     1 
   24    30     1 
   24    31     1 
   24    32     1 
   24    38     1 
   24    39     1 
   25    27     1 
   25    28     1 
   25    29     1 
   25    36     1 
   25    37     1 
   26    33     1 
   26    34     1 
   26    36     1 
   26    37     1 
   27    30     1 
   27    31     1 
   27    32     1 
   27    35     1 
   28    30     1 
   28    31     1 
   28    32     1 
   28    35     1 
   29    35     1 
   30    33     1 
   30    34     1 
   31    33     1 
   31    34     1 
   35    40     1 
   35    41     1 
   35    51     1 
   36    38     1 
   36    39     1 
   37    42     1 
   37    43     1 
   37    47     1 
   37    52     1 
   37    53     1 
   38    40     1 
   38    41     1 
   38    51     1 
   39    44     1 
   39    45     1 
   39    46     1 
   39    48     1 
   39    49     1 
   39    50     1 
   39    54     1 
   39    55     1 
   40    42     1 
   40    43     1 
   40    47     1 
   40    52     1 
   40    53     1 
   41    52     1 
   41    53     1 
   42    44     1 
   42    45     1 
   42    46     1 
   42    48     1 
   42    49     1 
   42    50     1 
   42    51     1 
   43    48     1 
   43    49     1 
   43    50     1 
   43    51     1 
   44    47     1 
   45    47     1 
   46    47     1 
   47    51     1 
   51    56     1 
   51    57     1 
   51    66     1 
   52    54     1 
   52    55     1 
   53    58     1 
   53    59     1 
   53    60     1 
   53    67     1 
   53    68     1 
   54    56     1 
   54    57     1 
   54    66     1 
   55    61     1 
   55    62     1 
   55    63     1 
   55    69     1 
   55    78     1 
   56    58     1 
   56    59     1 
   56    60     1 
   56    67     1 
   56    68     1 
   57    64     1 
   57    65     1 
   57    67     1 
   57    68     1 
   58    61     1 
   58    62     1 
   58    63     1 
   58    66     1 
   59    61     1 
   59    62     1 
   59    63     1 
   59    66     1 
   60    66     1 
   61    64     1 
   61    65     1 
   62    64     1 
   62    65     1 
   66    70     1 
   66    71     1 
   66    72     1 
   66    75     1 
   66    79     1 
   66    80     1 
   67    69     1 
   67    78     1 
   68    73     1 
   68    74     1 
   68    76     1 
   68    77     1 
   68    81     1 
   68    82     1 
   69    76     1 
   69    77     1 
   69    79     1 
   69    80     1 
   70    73     1 
   70    74     1 
   70    75     1 
   70    78     1 
   71    73     1 
   71    74     1 
   71    75     1 
   71    78     1 
   72    79     1 
   72    80     1 
   73    76     1 
   73    77     1 
   73    78     1 
   74    76     1 
   74    77     1 
   74    78     1 
   75    81     1 
   75    82     1 
   76    79     1 
   76    80     1 
   77    79     1 
   77    80     1 
   78    83     1 
   78    84     1 
   79    81     1 
   79    82     1 
   80    85     1 
   80    86     1 
   80    91     1 
   81    83     1 
   81    84     1 
   82    87     1 
   82    88     1 
   82    89     1 
   82    92     1 
   82    93     1 
   83    85     1 
   83    86     1 
   83    91     1 
   84    90     1 
   84    94     1 
   84    95     1 
   85    87     1 
   85    88     1 
   85    89     1 
   85    92     1 
   85    93     1 
   86    92     1 
   86    93     1 
   87    90     1 
   87    91     1 
   88    90     1 
   88    91     1 
   89    91     1 
   91    96     1 
   91    97     1 
   91   103     1 
   92    94     1 
   92    95     1 
   93    98     1 
   93    99     1 
   93   100     1 
   93   104     1 
   93   105     1 
   94    96     1 
   94    97     1 
   94   103     1 
   95   101     1 
   95   102     1 
   95   106     1 
   95   107     1 
   96    98     1 
   96    99     1 
   96   100     1 
   96   104     1 
   96   105     1 
   97   104     1 
   97   105     1 
   98   101     1 
   98   102     1 
   98   103     1 
   99   101     1 
   99   102     1 
   99   103     1 
  100   103     1 
  103   108     1 
  103   109     1 
  103   117     1 
  104   106     1 
  104   107     1 
  105   110     1 
  105   111     1 
  105   115     1 
  105   118     1 
  105   119     1 
  106   108     1 
  106   109     1 
  106   117     1 
  107   112     1 
  107   113     1 
  107   114     1 
  107   116     1 
  108   110     1 
  108   111     1 
  108   115     1 
  108   118     1 
  108   119     1 
  109   118     1 
  109   119     1 
  110   112     1 
  110   113     1 
  110   114     1 
  110   116     1 
  110   117     1 
  111   116     1 
  111   117     1 
  112   115     1 
  113   115     1 
  114   115     1 
  115   117     1 

[ angles ]
;  ai    aj    ak funct            c0            c1            c2            c3
    2     1     3     1 
    2     1     4     1 
    2     1     5     1 
    3     1     4     1 
    3     1     5     1 
    4     1     5     1 
    1     5     6     1 
    1     5     7     1 
    1     5    20     1 
    6     5     7     1 
    6     5    20     1 
    7     5    20     1 
    5     7     8     1 
    5     7     9     1 
    5     7    10     1 
    8     7     9     1 
    8     7    10     1 
    9     7    10     1 
    7    10    11     1 
    7    10    12     1 
    7    10    16     1 
   11    10    12     1 
   11    10    16     1 
   12    10    16     1 
   10    12    13     1 
   10    12    14     1 
   10    12    15     1 
   13    12    14     1 
   13    12    15     1 
   14    12    15     1 
   10    16    17     1 
   10    16    18     1 
   10    16    19     1 
   17    16    18     1 
   17    16    19     1 
   18    16    19     1 
    5    20    21     1 
    5    20    22     1 
   21    20    22     1 
   20    22    23     1 
   20    22    24     1 
   23    22    24     1 
   22    24    25     1 
   22    24    26     1 
   22    24    35     1 
   25    24    26     1 
   25    24    35     1 
   26    24    35     1 
   24    26    27     1 
   24    26    28     1 
   24    26    29     1 
   27    26    28     1 
   27    26    29     1 
   28    26    29     1 
   26    29    30     1 
   26    29    31     1 
   26    29    32     1 
   30    29    31     1 
   30    29    32     1 
   31    29    32     1 
   29    32    33     1 
   29    32    34     1 
   33    32    34     1 
   24    35    36     1 
   24    35    37     1 
   36    35    37     1 
   35    37    38     1 
   35    37    39     1 
   38    37    39     1 
   37    39    40     1 
   37    39    41     1 
   37    39    51     1 
   40    39    41     1 
   40    39    51     1 
   41    39    51     1 
   39    41    42     1 
   39    41    43     1 
   39    41    47     1 
   42    41    43     1 
   42    41    47     1 
   43    41    47     1 
   41    43    44     1 
   41    43    45     1 
   41    43    46     1 
   44    43    45     1 
   44    43    46     1 
   45    43    46     1 
   41    47    48     1 
   41    47    49     1 
   41    47    50     1 
   48    47    49     1 
   48    47    50     1 
   49    47    50     1 
   39    51    52     1 
   39    51    53     1 
   52    51    53     1 
   51    53    54     1 
   51    53    55     1 
   54    53    55     1 
   53    55    56     1 
   53    55    57     1 
   53    55    66     1 
   56    55    57     1 
   56    55    66     1 
   57    55    66     1 
   55    57    58     1 
   55    57    59     1 
   55    57    60     1 
   58    57    59     1 
   58    57    60     1 
   59    57    60     1 
   57    60    61     1 
   57    60    62     1 
   57    60    63     1 
   61    60    62     1 
   61    60    63     1 
   62    60    63     1 
   60    63    64     1 
   60    63    65     1 
   64    63    65     1 
   55    66    67     1 
   55    66    68     1 
   67    66    68     1 
   66    68    69     1 
   66    68    78     1 
   69    68    78     1 
   68    69    70     1 
   68    69    71     1 
   68    69    72     1 
   70    69    71     1 
   70    69    72     1 
   71    69    72     1 
   69    72    73     1 
   69    72    74     1 
   69    72    75     1 
   73    72    74     1 
   73    72    75     1 
   74    72    75     1 
   72    75    76     1 
   72    75    77     1 
   72    75    78     1 
   76    75    77     1 
   76    75    78     1 
   77    75    78     1 
   68    78    75     1 
   68    78    79     1 
   68    78    80     1 
   75    78    79     1 
   75    78    80     1 
   79    78    80     1 
   78    80    81     1 
   78    80    82     1 
   81    80    82     1 
   80    82    83     1 
   80    82    84     1 
   83    82    84     1 
   82    84    85     1 
   82    84    86     1 
   82    84    91     1 
   85    84    86     1 
   85    84    91     1 
   86    84    91     1 
   84    86    87     1 
   84    86    88     1 
   84    86    89     1 
   87    86    88     1 
   87    86    89     1 
   88    86    89     1 
   86    89    90     1 
   84    91    92     1 
   84    91    93     1 
   92    91    93     1 
   91    93    94     1 
   91    93    95     1 
   94    93    95     1 
   93    95    96     1 
   93    95    97     1 
   93    95   103     1 
   96    95    97     1 
   96    95   103     1 
   97    95   103     1 
   95    97    98     1 
   95    97    99     1 
   95    97   100     1 
   98    97    99     1 
   98    97   100     1 
   99    97   100     1 
   97   100   101     1 
   97   100   102     1 
  101   100   102     1 
   95   103   104     1 
   95   103   105     1 
  104   103   105     1 
  103   105   106     1 
  103   105   107     1 
  106   105   107     1 
  105   107   108     1 
  105   107   109     1 
  105   107   117     1 
  108   107   109     1 
  108   107   117     1 
  109   107   117     1 
  107   109   110     1 
  107   109   111     1 
  107   109   115     1 
  110   109   111     1 
  110   109   115     1 
  111   109   115     1 
  109   111   112     1 
  109   111   113     1 
  109   111   114     1 
  112   111   113     1 
  112   111   114     1 
  113   111   114     1 
  109   115   116     1 
  107   117   118     1 
  107   117   119     1 
  118   117   119     1 

[ dihedrals ]
;  ai    aj    ak    al funct            c0            c1            c2            c3            c4            c5
    2     1     5     6     9 
    2     1     5     7     9 
    2     1     5    20     9 
    3     1     5     6     9 
    3     1     5     7     9 
    3     1     5    20     9 
    4     1     5     6     9 
    4     1     5     7     9 
    4     1     5    20     9 
   20     5     7    10     9    torsion_LEU_C_CA_CB_CG_mult1
   20     5     7    10     9    torsion_LEU_C_CA_CB_CG_mult2
   20     5     7    10     9    torsion_LEU_C_CA_CB_CG_mult3
    1     5     7     8     9 
    1     5     7     9     9 
    1     5     7    10     9 
    6     5     7     8     9 
    6     5     7     9     9 
    6     5     7    10     9 
   20     5     7     8     9 
   20     5     7     9     9 
    1     5    20    21     9 
    1     5    20    22     9 
    6     5    20    21     9 
    6     5    20    22     9 
    7     5    20    21     9 
    7     5    20    22     9 
    5     7    10    11     9 
    5     7    10    12     9 
    5     7    10    16     9 
    8     7    10    11     9 
    8     7    10    12     9 
    8     7    10    16     9 
    9     7    10    11     9 
    9     7    10    12     9 
    9     7    10    16     9 
    7    10    12    13     9 
    7    10    12    14     9 
    7    10    12    15     9 
   11    10    12    13     9 
   11    10    12    14     9 
   11    10    12    15     9 
   16    10    12    13     9 
   16    10    12    14     9 
   16    10    12    15     9 
    7    10    16    17     9 
    7    10    16    18     9 
    7    10    16    19     9 
   11    10    16    17     9 
   11    10    16    18     9 
   11    10    16    19     9 
   12    10    16    17     9 
   12    10    16    18     9 
   12    10    16    19     9 
    5    20    22    23     9 
    5    20    22    24     9 
   21    20    22    23     9 
   21    20    22    24     9 
   20    22    24    25     9 
   20    22    24    26     9 
   20    22    24    35     9 
   23    22    24    25     9 
   23    22    24    26     9 
   23    22    24    35     9 
   22    24    26    27     9 
   22    24    26    28     9 
   22    24    26    29     9 
   25    24    26    27     9 
   25    24    26    28     9 
   25    24    26    29     9 
   35    24    26    27     9 
   35    24    26    28     9 
   35    24    26    29     9 
   22    24    35    36     9 
   22    24    35    37     9 
   25    24    35    36     9 
   25    24    35    37     9 
   26    24    35    36     9 
   26    24    35    37     9 
   24    26    29    30     9 
   24    26    29    31     9 
   24    26    29    32     9 
   27    26    29    30     9 
   27    26    29    31     9 
   27    26    29    32     9 
   28    26    29    30     9 
   28    26    29    31     9 
   28    26    29    32     9 
   26    29    32    33     9 
   26    29    32    34     9 
   30    29    32    33     9 
   30    29    32    34     9 
   31    29    32    33     9 
   31    29    32    34     9 
   24    35    37    38     9 
   24    35    37    39     9 
   36    35    37    38     9 
   36    35    37    39     9 
   35    37    39    40     9 
   35    37    39    41     9 
   35    37    39    51     9 
   38    37    39    40     9 
   38    37    39    41     9 
   38    37    39    51     9 
   37    39    41    42     9 
   37    39    41    43     9 
   37    39    41    47     9 
   40    39    41    42     9 
   40    39    41    43     9 
   40    39    41    47     9 
   51    39    41    42     9 
   51    39    41    43     9 
   51    39    41    47     9 
   37    39    51    52     9 
   37    39    51    53     9 
   40    39    51    52     9 
   40    39    51    53     9 
   41    39    51    52     9 
   41    39    51    53     9 
   39    41    43    44     9 
   39    41    43    45     9 
   39    41    43    46     9 
   42    41    43    44     9 
   42    41    43    45     9 
   42    41    43    46     9 
   47    41    43    44     9 
   47    41    43    45     9 
   47    41    43    46     9 
   39    41    47    48     9 
   39    41    47    49     9 
   39    41    47    50     9 
   42    41    47    48     9 
   42    41    47    49     9 
   42    41    47    50     9 
   43    41    47    48     9 
   43    41    47    49     9 
   43    41    47    50     9 
   39    51    53    54     9 
   39    51    53    55     9 
   52    51    53    54     9 
   52    51    53    55     9 
   51    53    55    56     9 
   51    53    55    57     9 
   51    53    55    66     9 
   54    53    55    56     9 
   54    53    55    57     9 
   54    53    55    66     9 
   53    55    57    58     9 
   53    55    57    59     9 
   53    55    57    60     9 
   56    55    57    58     9 
   56    55    57    59     9 
   56    55    57    60     9 
   66    55    57    58     9 
   66    55    57    59     9 
   66    55    57    60     9 
   53    55    66    67     9 
   53    55    66    68     9 
   56    55    66    67     9 
   56    55    66    68     9 
   57    55    66    67     9 
   57    55    66    68     9 
   55    57    60    61     9 
   55    57    60    62     9 
   55    57    60    63     9 
   58    57    60    61     9 
   58    57    60    62     9 
   58    57    60    63     9 
   59    57    60    61     9 
   59    57    60    62     9 
   59    57    60    63     9 
   57    60    63    64     9 
   57    60    63    65     9 
   61    60    63    64     9 
   61    60    63    65     9 
   62    60    63    64     9 
   62    60    63    65     9 
   55    66    68    69     9 
   55    66    68    78     9 
   67    66    68    69     9 
   67    66    68    78     9 
   66    68    69    70     9 
   66    68    69    71     9 
   66    68    69    72     9 
   78    68    69    70     9 
   78    68    69    71     9 
   78    68    69    72     9 
   66    68    78    75     9 
   66    68    78    79     9 
   66    68    78    80     9 
   69    68    78    75     9 
   69    68    78    79     9 
   69    68    78    80     9 
   68    69    72    73     9 
   68    69    72    74     9 
   68    69    72    75     9 
   70    69    72    73     9 
   70    69    72    74     9 
   70    69    72    75     9 
   71    69    72    73     9 
   71    69    72    74     9 
   71    69    72    75     9 
   69    72    75    76     9 
   69    72    75    77     9 
   69    72    75    78     9 
   73    72    75    76     9 
   73    72    75    77     9 
   73    72    75    78     9 
   74    72    75    76     9 
   74    72    75    77     9 
   74    72    75    78     9 
   72    75    78    68     9 
   72    75    78    79     9 
   72    75    78    80     9 
   76    75    78    68     9 
   76    75    78    79     9 
   76    75    78    80     9 
   77    75    78    68     9 
   77    75    78    79     9 
   77    75    78    80     9 
   68    78    80    81     9 
   68    78    80    82     9 
   75    78    80    81     9 
   75    78    80    82     9 
   79    78    80    81     9 
   79    78    80    82     9 
   78    80    82    83     9 
   78    80    82    84     9 
   81    80    82    83     9 
   81    80    82    84     9 
   80    82    84    85     9 
   80    82    84    86     9 
   80    82    84    91     9 
   83    82    84    85     9 
   83    82    84    86     9 
   83    82    84    91     9 
   82    84    86    87     9 
   82    84    86    88     9 
   82    84    86    89     9 
   85    84    86    87     9 
   85    84    86    88     9 
   85    84    86    89     9 
   91    84    86    87     9 
   91    84    86    88     9 
   91    84    86    89     9 
   82    84    91    92     9 
   82    84    91    93     9 
   85    84    91    92     9 
   85    84    91    93     9 
   86    84    91    92     9 
   86    84    91    93     9 
   84    86    89    90     9 
   87    86    89    90     9 
   88    86    89    90     9 
   84    91    93    94     9 
   84    91    93    95     9 
   92    91    93    94     9 
   92    91    93    95     9 
   91    93    95    96     9 
   91    93    95    97     9 
   91    93    95   103     9 
   94    93    95    96     9 
   94    93    95    97     9 
   94    93    95   103     9 
   93    95    97   100     9    torsion_ASP_N_CA_CB_CG_mult1
   93    95    97   100     9    torsion_ASP_N_CA_CB_CG_mult2
   93    95    97   100     9    torsion_ASP_N_CA_CB_CG_mult3
   93    95    97   100     9    torsion_ASP_N_CA_CB_CG_mult4
   93    95    97   100     9    torsion_ASP_N_CA_CB_CG_mult5
   93    95    97   100     9    torsion_ASP_N_CA_CB_CG_mult6
   93    95    97    98     9 
   93    95    97    99     9 
   96    95    97    98     9 
   96    95    97    99     9 
   96    95    97   100     9 
  103    95    97    98     9 
  103    95    97    99     9 
  103    95    97   100     9 
   93    95   103   104     9 
   93    95   103   105     9 
   96    95   103   104     9 
   96    95   103   105     9 
   97    95   103   104     9 
   97    95   103   105     9 
   95    97   100   101     9    torsion_ASP_CA_CB_CG_OD_mult1
   95    97   100   101     9    torsion_ASP_CA_CB_CG_OD_mult2
   95    97   100   101     9    torsion_ASP_CA_CB_CG_OD_mult3
   95    97   100   101     9    torsion_ASP_CA_CB_CG_OD_mult4
   95    97   100   101     9    torsion_ASP_CA_CB_CG_OD_mult5
   95    97   100   101     9    torsion_ASP_CA_CB_CG_OD_mult6
   95    97   100   102     9    torsion_ASP_CA_CB_CG_OD_mult1
   95    97   100   102     9    torsion_ASP_CA_CB_CG_OD_mult2
   95    97   100   102     9    torsion_ASP_CA_CB_CG_OD_mult3
   95    97   100   102     9    torsion_ASP_CA_CB_CG_OD_mult4
   95    97   100   102     9    torsion_ASP_CA_CB_CG_OD_mult5
   95    97   100   102     9    torsion_ASP_CA_CB_CG_OD_mult6
   98    97   100   101     9 
   98    97   100   102     9 
   99    97   100   101     9 
   99    97   100   102     9 
   95   103   105   106     9 
   95   103   105   107     9 
  104   103   105   106     9 
  104   103   105   107     9 
  103   105   107   108     9 
  103   105   107   109     9 
  103   105   107   117     9 
  106   105   107   108     9 
  106   105   107   109     9 
  106   105   107   117     9 
  105   107   109   110     9 
  105   107   109   111     9 
  105   107   109   115     9 
  108   107   109   110     9 
  108   107   109   111     9 
  108   107   109   115     9 
  117   107   109   110     9 
  117   107   109   111     9 
  117   107   109   115     9 
  105   107   117   118     9 
  105   107   117   119     9 
  108   107   117   118     9 
  108   107   117   119     9 
  109   107   117   118     9 
  109   107   117   119     9 
  107   109   111   112     9 
  107   109   111   113     9 
  107   109   111   114     9 
  110   109   111   112     9 
  110   109   111   113     9 
  110   109   111   114     9 
  115   109   111   112     9 
  115   109   111   113     9 
  115   109   111   114     9 
  107   109   115   116     9 
  110   109   115   116     9 
  111   109   115   116     9 

[ dihedrals ]
;  ai    aj    ak    al funct            c0            c1            c2            c3
    5    22    20    21     4 
   20    24    22    23     4 
   24    37    35    36     4 
   29    33    32    34     4 
   35    39    37    38     4 
   39    53    51    52     4 
   51    55    53    54     4 
   55    68    66    67     4 
   60    64    63    65     4 
   66    69    68    78     4 
   78    82    80    81     4 
   80    84    82    83     4 
   84    93    91    92     4 
   91    95    93    94     4 
   95   105   103   104     4 
   97   101   100   102     4 
  103   107   105   106     4 
  107   118   117   119     4 

; Include Position restraint file
#ifdef POSRES
#include "posre.itp"
#endif

; Include water topology
#include "amber99sb-ildn.ff/tip3p.itp"

#ifdef POSRES_WATER
; Position restraint for each water oxygen
[ position_restraints ]
;  i funct       fcx        fcy        fcz
   1    1       1000       1000       1000
#endif

; Include topology for ions
#include "amber99sb-ildn.ff/ions.itp"

[ system ]
; Name
Protein

[ molecules ]
; Compound        #mols
Protein_chain_A     1
