integrator = md
nsteps = 0
dt = 0.001
nstxout = 1
nstvout = 0
nstfout = 1
nstenergy = 1
nstlog = 1
cutoff-scheme = Verlet
nstlist = 1
verlet-buffer-tolerance = -1
rlist = 9.0
coulombtype = Cut-off
coulomb-modifier = None
rcoulomb = 9.0
vdwtype = Cut-off
vdw-modifier = None
rvdw = 9.0
DispCorr = no
pbc = xyz
constraints = none
define = -DFLEXIBLE
tcoupl = no
pcoupl = no
comm-mode = none
gen-vel = no
continuation = yes
