%VERSION  VERSION_STAMP = V0001.000  DATE = 09/10/26  22:09:27                  
%FLAG TITLE                                                                     
%FORMAT(20a4)                                                                   
ACE                                                                             
%FLAG POINTERS                                                                  
%FORMAT(10I8)                                                                   
      36      11      15      21      32      29      63      58       0       0
     173       3      21      29      58      19      35      35      14       0
       0       0       0       0       0       0       0       0      24       0
       0
%FLAG ATOM_NAME                                                                 
%FORMAT(20a4)                                                                   
H1  CH3 H2  H3  C   O   N   H   CA  HA  CB  HB2 HB3 CG  CD1 HD1 CE1 HE1 CZ  CE2 
HE2 CD2 HD2 OH  P   O1P O2P O3P C   O   N   H   C   H1  H2  H3  
%FLAG CHARGE                                                                    
%FORMAT(5E16.8)                                                                 
  2.04636429E+00 -6.67300626E+00  2.04636429E+00  2.04636429E+00  1.08823576E+01
 -1.03484442E+01 -9.40817349E+00  5.35006728E+00  2.57442832E+00  5.09896399E-01
 -4.57691331E+00  1.49295304E+00  1.49295304E+00  1.33835505E+00 -3.60954607E+00
  2.05006342E+00 -4.63331133E+00  2.94483301E+00  8.69220110E+00 -4.63331133E+00
  2.94483301E+00 -3.60954607E+00  2.05006342E+00 -1.01670230E+01  2.51590012E+01
 -1.71936512E+01 -1.71936512E+01 -1.71936512E+01  9.77808618E+00 -1.06035564E+01
 -7.57501011E+00  4.95464337E+00 -2.71512270E+00  1.77849648E+00  1.77849648E+00
  1.77849648E+00
%FLAG ATOMIC_NUMBER                                                             
%FORMAT(10I8)                                                                   
       1       6       1       1       6       8       7       1       6       1
       6       1       1       6       6       1       6       1       6       6
       1       6       1       8      15       8       8       8       6       8
       7       1       6       1       1       1
%FLAG MASS                                                                      
%FORMAT(5E16.8)                                                                 
  1.00800000E+00  1.20100000E+01  1.00800000E+00  1.00800000E+00  1.20100000E+01
  1.60000000E+01  1.40100000E+01  1.00800000E+00  1.20100000E+01  1.00800000E+00
  1.20100000E+01  1.00800000E+00  1.00800000E+00  1.20100000E+01  1.20100000E+01
  1.00800000E+00  1.20100000E+01  1.00800000E+00  1.20100000E+01  1.20100000E+01
  1.00800000E+00  1.20100000E+01  1.00800000E+00  1.60000000E+01  3.09700000E+01
  1.60000000E+01  1.60000000E+01  1.60000000E+01  1.20100000E+01  1.60000000E+01
  1.40100000E+01  1.00800000E+00  1.20100000E+01  1.00800000E+00  1.00800000E+00
  1.00800000E+00
%FLAG ATOM_TYPE_INDEX                                                           
%FORMAT(10I8)                                                                   
       1       2       1       1       3       4       5       6       2       7
       2       1       1       3       3       8       3       8       3       3
       8       3       8       9      10      11      11      11       3       4
       5       6       2       7       7       7
%FLAG NUMBER_EXCLUDED_ATOMS                                                     
%FORMAT(10I8)                                                                   
       6       7       4       3       7       3      10       4      12       7
      12       5       4      10       8       4       7       3       9       5
       3       2       1       4       3       2       1       1       7       3
       5       4       3       2       1       1
%FLAG NONBONDED_PARM_INDEX                                                      
%FORMAT(10I8)                                                                   
       1       2       4       7      11      16      22      29      37      46
      56       2       3       5       8      12      17      23      30      38
      47      57       4       5       6       9      13      18      24      31
      39      48      58       7       8       9      10      14      19      25
      32      40      49      59      11      12      13      14      15      20
      26      33      41      50      60      16      17      18      19      20
      21      27      34      42      51      61      22      23      24      25
      26      27      28      35      43      52      62      29      30      31
      32      33      34      35      36      44      53      63      37      38
      39      40      41      42      43      44      45      54      64      46
      47      48      49      50      51      52      53      54      55      65
      56      57      58      59      60      61      62      63      64      65
      66
%FLAG RESIDUE_LABEL                                                             
%FORMAT(20a4)                                                                   
ACE PTR NME 
%FLAG RESIDUE_POINTER                                                           
%FORMAT(10I8)                                                                   
       1       7      31
%FLAG BOND_FORCE_CONSTANT                                                       
%FORMAT(5E16.8)                                                                 
  5.70000000E+02  4.90000000E+02  3.40000000E+02  3.17000000E+02  5.25000000E+02
  2.30000000E+02  3.67000000E+02  4.69000000E+02  4.50000000E+02  4.69000000E+02
  4.69000000E+02  3.17000000E+02  3.40000000E+02  3.17000000E+02  3.10000000E+02
  4.34000000E+02  3.37000000E+02  3.40000000E+02  3.37000000E+02
%FLAG BOND_EQUIL_VALUE                                                          
%FORMAT(5E16.8)                                                                 
  1.22900000E+00  1.33500000E+00  1.09000000E+00  1.52200000E+00  1.48000000E+00
  1.61000000E+00  1.08000000E+00  1.40000000E+00  1.32300000E+00  1.40900000E+00
  1.40000000E+00  1.51000000E+00  1.09000000E+00  1.52200000E+00  1.52600000E+00
  1.01000000E+00  1.44900000E+00  1.09000000E+00  1.44900000E+00
%FLAG ANGLE_FORCE_CONSTANT                                                      
%FORMAT(5E16.8)                                                                 
  8.00000000E+01  5.00000000E+01  5.00000000E+01  5.00000000E+01  3.50000000E+01
  8.00000000E+01  7.00000000E+01  5.00000000E+01  1.40000000E+02  1.00000000E+02
  5.00000000E+01  7.00000000E+01  1.00000000E+02  5.00000000E+01  6.30000000E+01
  6.30000000E+01  6.30000000E+01  6.30000000E+01  5.00000000E+01  5.00000000E+01
  6.30000000E+01  7.00000000E+01  5.00000000E+01  5.00000000E+01  8.00000000E+01
  7.00000000E+01  5.00000000E+01  6.30000000E+01  5.00000000E+01  5.00000000E+01
  6.30000000E+01  8.00000000E+01  3.50000000E+01  5.00000000E+01  5.00000000E+01
%FLAG ANGLE_EQUIL_VALUE                                                         
%FORMAT(5E16.8)                                                                 
  2.14501057E+00  2.09439600E+00  2.12755727E+00  1.91113635E+00  1.91113635E+00
  2.10137732E+00  2.03505478E+00  2.12755727E+00  2.09265067E+00  1.88897066E+00
  2.09439600E+00  2.09439600E+00  2.10312265E+00  2.09439600E+00  2.09439600E+00
  2.09439600E+00  2.09439600E+00  2.09439600E+00  2.09439600E+00  1.91113635E+00
  1.93906163E+00  2.09439600E+00  1.91113635E+00  1.91113635E+00  2.10137732E+00
  2.03505478E+00  1.91113635E+00  1.98967620E+00  2.06018753E+00  1.91113635E+00
  1.92160833E+00  1.91462701E+00  1.91113635E+00  2.06018753E+00  1.91113635E+00
%FLAG DIHEDRAL_FORCE_CONSTANT                                                   
%FORMAT(5E16.8)                                                                 
  2.00000000E+00  2.50000000E+00  0.00000000E+00  0.00000000E+00  2.70000000E-01
  4.20000000E-01  0.00000000E+00  1.80000000E+00  8.00000000E-01  8.00000000E-01
  8.00000000E-02  3.62500000E+00  1.97880700E+00  8.22761000E-01  4.12892500E+00
  5.52489000E-01  4.78425000E-01  0.00000000E+00  1.55555556E-01  2.00000000E-01
  2.00000000E-01  4.00000000E-01  1.61227500E+00  6.68517000E-01  8.11112000E-01
  6.00120000E-02  4.50000000E-01  1.58000000E+00  5.50000000E-01  1.52093000E-01
  1.72788000E-01  4.90342000E-01  4.51510000E-02  1.05000000E+01  1.10000000E+00
%FLAG DIHEDRAL_PERIODICITY                                                      
%FORMAT(5E16.8)                                                                 
  1.00000000E+00  2.00000000E+00  2.00000000E+00  1.00000000E+00  2.00000000E+00
  3.00000000E+00  4.00000000E+00  2.00000000E+00  3.00000000E+00  1.00000000E+00
  3.00000000E+00  2.00000000E+00  1.00000000E+00  2.00000000E+00  3.00000000E+00
  4.00000000E+00  3.00000000E+00  2.00000000E+00  3.00000000E+00  1.00000000E+00
  2.00000000E+00  3.00000000E+00  1.00000000E+00  2.00000000E+00  3.00000000E+00
  4.00000000E+00  1.00000000E+00  2.00000000E+00  3.00000000E+00  1.00000000E+00
  2.00000000E+00  3.00000000E+00  4.00000000E+00  2.00000000E+00  2.00000000E+00
%FLAG DIHEDRAL_PHASE                                                            
%FORMAT(5E16.8)                                                                 
  0.00000000E+00  3.14159400E+00  0.00000000E+00  0.00000000E+00  0.00000000E+00
  0.00000000E+00  0.00000000E+00  0.00000000E+00  0.00000000E+00  0.00000000E+00
  3.14159400E+00  3.14159400E+00  0.00000000E+00  3.14159400E+00  3.14159400E+00
  0.00000000E+00  3.14159400E+00  3.14159400E+00  0.00000000E+00  0.00000000E+00
  0.00000000E+00  0.00000000E+00  3.14159400E+00  0.00000000E+00  0.00000000E+00
  0.00000000E+00  3.14159400E+00  3.14159400E+00  3.14159400E+00  0.00000000E+00
  3.14159400E+00  0.00000000E+00  3.14159400E+00  3.14159400E+00  3.14159400E+00
%FLAG SCEE_SCALE_FACTOR                                                         
%FORMAT(5E16.8)                                                                 
  1.20000000E+00  1.20000000E+00  1.20000000E+00  1.20000000E+00  1.20000000E+00
  1.20000000E+00  1.20000000E+00  1.20000000E+00  1.20000000E+00  1.20000000E+00
  1.20000000E+00  1.20000000E+00  1.20000000E+00  1.20000000E+00  1.20000000E+00
  1.20000000E+00  1.20000000E+00  1.20000000E+00  1.20000000E+00  1.20000000E+00
  1.20000000E+00  1.20000000E+00  1.20000000E+00  1.20000000E+00  1.20000000E+00
  1.20000000E+00  1.20000000E+00  1.20000000E+00  1.20000000E+00  1.20000000E+00
  1.20000000E+00  1.20000000E+00  1.20000000E+00  0.00000000E+00  0.00000000E+00
%FLAG SCNB_SCALE_FACTOR                                                         
%FORMAT(5E16.8)                                                                 
  2.00000000E+00  2.00000000E+00  2.00000000E+00  2.00000000E+00  2.00000000E+00
  2.00000000E+00  2.00000000E+00  2.00000000E+00  2.00000000E+00  2.00000000E+00
  2.00000000E+00  2.00000000E+00  2.00000000E+00  2.00000000E+00  2.00000000E+00
  2.00000000E+00  2.00000000E+00  2.00000000E+00  2.00000000E+00  2.00000000E+00
  2.00000000E+00  2.00000000E+00  2.00000000E+00  2.00000000E+00  2.00000000E+00
  2.00000000E+00  2.00000000E+00  2.00000000E+00  2.00000000E+00  2.00000000E+00
  2.00000000E+00  2.00000000E+00  2.00000000E+00  0.00000000E+00  0.00000000E+00
%FLAG SOLTY                                                                     
%FORMAT(5E16.8)                                                                 
  0.00000000E+00  0.00000000E+00  0.00000000E+00  0.00000000E+00  0.00000000E+00
  0.00000000E+00  0.00000000E+00  0.00000000E+00  0.00000000E+00  0.00000000E+00
  0.00000000E+00  0.00000000E+00  0.00000000E+00  0.00000000E+00
%FLAG LENNARD_JONES_ACOEF                                                       
%FORMAT(5E16.8)                                                                 
  7.51607703E+03  9.71708117E+04  1.04308023E+06  8.61541883E+04  9.24822270E+05
  8.19971662E+05  5.44261042E+04  6.47841731E+05  5.74393458E+05  3.79876399E+05
  8.96776989E+04  9.95480466E+05  8.82619071E+05  6.06829342E+05  9.44293233E+05
  1.07193646E+02  2.56678134E+03  2.27577561E+03  1.02595236E+03  2.12601181E+03
  1.39982777E-01  4.98586848E+03  6.78771368E+04  6.01816484E+04  3.69471530E+04
  6.20665997E+04  5.94667300E+01  3.25969625E+03  6.55825601E+03  8.59947003E+04
  7.62451550E+04  4.77908183E+04  7.91627154E+04  8.90987508E+01  4.33325458E+03
  5.71629601E+03  4.80439246E+04  5.73162690E+05  5.08181062E+05  3.35666648E+05
  5.36660157E+05  8.98887675E+02  3.25941928E+04  4.21794877E+04  2.96593912E+05
  2.54238516E+05  2.54188684E+06  2.25370349E+06  1.64263766E+06  2.45746558E+06
  8.41065839E+03  1.81087383E+05  2.26202022E+05  1.45453427E+06  6.02589390E+06
  4.89873250E+04  5.90417968E+05  5.23480044E+05  3.43816056E+05  5.51800167E+05
  8.85844726E+02  3.31398563E+04  4.29742998E+04  3.03757126E+05  1.50417263E+06
  3.10918777E+05
%FLAG LENNARD_JONES_BCOEF                                                       
%FORMAT(5E16.8)                                                                 
  2.17257828E+01  1.26919150E+02  6.75612247E+02  1.12529845E+02  5.99015525E+02
  5.31102864E+02  1.11805549E+02  6.26720080E+02  5.55666448E+02  5.64885984E+02
  1.36131731E+02  7.36907417E+02  6.53361429E+02  6.77220874E+02  8.01323529E+02
  2.59456373E+00  2.06278363E+01  1.82891803E+01  1.53505284E+01  2.09604198E+01
  9.37598976E-02  1.76949863E+01  1.06076943E+02  9.40505980E+01  9.21192136E+01
  1.13252061E+02  1.93248820E+00  1.43076527E+01  2.00642027E+01  1.18043746E+02
  1.04660679E+02  1.03580945E+02  1.26451907E+02  2.33864085E+00  1.63092814E+01
  1.85196588E+01  9.96406099E+01  5.59159249E+02  4.95765244E+02  5.03675870E+02
  6.04093459E+02  1.36291839E+01  8.20705330E+01  9.23029733E+01  4.49092263E+02
  2.38716853E+02  1.22636552E+03  1.08732781E+03  1.16041466E+03  1.34630496E+03
  4.34187588E+01  2.01468199E+02  2.22617115E+02  1.03576613E+03  2.19561270E+03
  1.06072205E+02  5.98299904E+02  5.30468375E+02  5.37406259E+02  6.45785015E+02
  1.42639082E+01  8.72438943E+01  9.82227386E+01  4.79137638E+02  1.11042993E+03
  5.11049678E+02
%FLAG BONDS_INC_HYDROGEN                                                        
%FORMAT(10I8)                                                                   
       3       6       3       3       9       3       0       3       3      63
      66       7      57      60       7      48      51       7      42      45
       7      30      33       3      30      36       3      24      27      13
      18      21      16      96      99      18      96     102      18      96
     105      18      90      93      16
%FLAG BONDS_WITHOUT_HYDROGEN                                                    
%FORMAT(10I8)                                                                   
      12      15       1      12      18       2       3      12       4      84
      87       1      84      90       2      72      78       5      72      81
       5      72      75       5      69      72       6      57      63       8
      54      69       9      54      57      10      48      54      10      42
      48       8      39      63      11      39      42      11      30      39
      12      24      84      14      24      30      15      18      24      17
      90      96      19
%FLAG ANGLES_INC_HYDROGEN                                                       
%FORMAT(10I8)                                                                   
      12      18      21       2       9       3      12       4       6       3
       9       5       6       3      12       4       0       3       6       5
       0       3       9       5       0       3      12       4      84      90
      93       2      60      57      63      11      57      63      66      11
      54      57      60      14      51      48      54      14      45      42
      48      11      42      48      51      11      39      63      66      19
      39      42      45      19      36      30      39      20      33      30
      36       5      33      30      39      20      27      24      84      23
      27      24      30      24      24      30      33      27      24      30
      36      27      21      18      24      29      18      24      27      30
     102      96     105      33      99      96     102      33      99      96
     105      33      93      90      96      34      90      96      99      35
      90      96     102      35      90      96     105      35
%FLAG ANGLES_WITHOUT_HYDROGEN                                                   
%FORMAT(10I8)                                                                   
      15      12      18       1      12      18      24       3       3      12
      15       6       3      12      18       7      87      84      90       1
      84      90      96       8      78      72      81       9      75      72
      78       9      75      72      81       9      69      72      78      10
      69      72      81      10      69      72      75      10      57      54
      69      12      54      69      72      13      54      57      63      15
      48      54      69      12      48      54      57      16      42      39
      63      17      42      48      54      15      39      63      57      18
      39      42      48      18      30      24      84      21      30      39
      63      22      30      39      42      22      24      84      87      25
      24      84      90      26      24      30      39      28      18      24
      84      31      18      24      30      32
%FLAG DIHEDRALS_INC_HYDROGEN                                                    
%FORMAT(10I8)                                                                   
      15      12      18      21       1      15      12     -18      21       2
      12      18      24      27       3       9       3      12      15      10
       9       3     -12      15       3       9       3     -12      15      11
       9       3      12      18       3       6       3      12      15      10
       6       3     -12      15       3       6       3     -12      15      11
       6       3      12      18       3       3      12      18      21       2
       0       3      12      15      10       0       3     -12      15       3
       0       3     -12      15      11       0       3      12      18       3
      87      84      90      93       1      87      84     -90      93       2
      84      90      96      99       3      84      90      96     102       3
      84      90      96     105       3      60      57      54      69      12
      60      57      63      66      12      54      57      63      66      12
      51      48      54      69      12      51      48      54      57      12
      48      54      57      60      12      45      42      39      63      18
      45      42      48      51      12      45      42      48      54      12
      42      39      63      66      18      39      63      57      60      12
      39      42      48      51      12      36      30      24      84      19
      36      30      39      63      18      36      30      39      42      18
      33      30      24      84      19      33      30      39      63      18
      33      30      39      42      18      30      39      63      66      18
      30      39      42      45      18      27      24      84      87      10
      27      24     -84      87       3      27      24     -84      87      11
      27      24      84      90       3      27      24      30      33      19
      27      24      30      36      19      27      24      30      39      19
      24      84      90      93       2      21      18      24      27       3
      21      18      24      84       3      21      18      24      30       3
      18      24      30      33      19      18      24      30      36      19
      93      90      96      99       3      93      90      96     102       3
      93      90      96     105       3      57      39     -63     -66      35
      54      63     -57     -60      35      42      54     -48     -51      35
      48      39     -42     -45      35      12      24     -18     -21      35
      84      96     -90     -93      35
%FLAG DIHEDRALS_WITHOUT_HYDROGEN                                                
%FORMAT(10I8)                                                                   
      15      12      18      24       2      12      18      24      84       4
      12      18     -24      84       5      12      18     -24      84       6
      12      18     -24      84       7      12      18      24      30       1
      12      18     -24      30       8      12      18     -24      30       9
      12      18     -24      30       7       3      12      18      24       2
      87      84      90      96       2      63      57      54      69      12
      57      54      69      72      13      57      54     -69      72      14
      57      54     -69      72      15      57      54     -69      72      16
      54      69      72      78      17      54      69      72      81      17
      54      69      72      75      17      48      42      39      63      18
      48      54      69      72      13      48      54     -69      72      14
      48      54     -69      72      15      48      54     -69      72      16
      48      54     -57      63      12      42      39      63      57      18
      42      48      54      69      12      42      48     -54      57      12
      39      30      24      84      19      39      63      57      54      12
      39      42     -48      54      12      30      24      84      87       3
      30      24      84      90      20      30      24     -84      90      21
      30      24     -84      90      22      30      24     -84      90       7
      30      39      63      57      18      30      39      42      48      18
      24      84      90      96       2      24      30      39      63      23
      24      30     -39      63      24      24      30     -39      63      25
      24      30     -39      63      26      24      30      39      42      23
      24      30     -39      42      24      24      30     -39      42      25
      24      30     -39      42      26      18      24      84      87       3
      18      24      84      90      27      18      24     -84      90      28
      18      24     -84      90      29      18      24     -84      90       7
      18      24      30      39      30      18      24     -30      39      31
      18      24     -30      39      32      18      24     -30      39      33
       3      18     -12     -15      34      24      90     -84     -87      34
%FLAG EXCLUDED_ATOMS_LIST                                                       
%FORMAT(10I8)                                                                   
       2       3       4       5       6       7       3       4       5       6
       7       8       9       4       5       6       7       5       6       7
       6       7       8       9      10      11      29       7       8       9
       8       9      10      11      12      13      14      29      30      31
       9      10      11      29      10      11      12      13      14      15
      22      29      30      31      32      33      11      12      13      14
      29      30      31      12      13      14      15      16      17      20
      22      23      29      30      31      13      14      15      22      29
      14      15      22      29      15      16      17      18      19      20
      21      22      23      29      16      17      18      19      20      22
      23      24      17      18      19      22      18      19      20      21
      22      24      25      19      20      24      20      21      22      23
      24      25      26      27      28      21      22      23      24      25
      22      23      24      23      24       0      25      26      27      28
      26      27      28      27      28      28       0      30      31      32
      33      34      35      36      31      32      33      32      33      34
      35      36      33      34      35      36      34      35      36      35
      36      36       0
%FLAG HBOND_ACOEF                                                               
%FORMAT(5E16.8)                                                                 

%FLAG HBOND_BCOEF                                                               
%FORMAT(5E16.8)                                                                 

%FLAG HBCUT                                                                     
%FORMAT(5E16.8)                                                                 

%FLAG AMBER_ATOM_TYPE                                                           
%FORMAT(20a4)                                                                   
HC  CT  HC  HC  C   O   N   H   CX  H1  CT  HC  HC  CG  CA  HA  CA  HA  C   CA  
HA  CA  HA  OV  P   OT  OT  OT  C   O   N   H   CT  H1  H1  H1  
%FLAG TREE_CHAIN_CLASSIFICATION                                                 
%FORMAT(20a4)                                                                   
M   M   E   E   M   E   M   E   M   E   3   E   E   B   B   E   B   E   B   S   
E   S   E   S   3   E   E   E   M   E   M   E   M   E   E   E   
%FLAG JOIN_ARRAY                                                                
%FORMAT(10I8)                                                                   
       0       0       0       0       0       0       0       0       0       0
       0       0       0       0       0       0       0       0       0       0
       0       0       0       0       0       0       0       0       0       0
       0       0       0       0       0       0
%FLAG IROTAT                                                                    
%FORMAT(10I8)                                                                   
       0       0       0       0       0       0       0       0       0       0
       0       0       0       0       0       0       0       0       0       0
       0       0       0       0       0       0       0       0       0       0
       0       0       0       0       0       0
%FLAG RADIUS_SET                                                                
%FORMAT(1a80)                                                                   
modified Bondi radii (mbondi)                                                   
%FLAG RADII                                                                     
%FORMAT(5E16.8)                                                                 
  1.30000000E+00  1.70000000E+00  1.30000000E+00  1.30000000E+00  1.70000000E+00
  1.50000000E+00  1.55000000E+00  1.30000000E+00  1.70000000E+00  1.30000000E+00
  1.70000000E+00  1.30000000E+00  1.30000000E+00  1.70000000E+00  1.70000000E+00
  1.30000000E+00  1.70000000E+00  1.30000000E+00  1.70000000E+00  1.70000000E+00
  1.30000000E+00  1.70000000E+00  1.30000000E+00  1.50000000E+00  1.85000000E+00
  1.50000000E+00  1.50000000E+00  1.50000000E+00  1.70000000E+00  1.50000000E+00
  1.55000000E+00  1.30000000E+00  1.70000000E+00  1.30000000E+00  1.30000000E+00
  1.30000000E+00
%FLAG SCREEN                                                                    
%FORMAT(5E16.8)                                                                 
  8.50000000E-01  7.20000000E-01  8.50000000E-01  8.50000000E-01  7.20000000E-01
  8.50000000E-01  7.90000000E-01  8.50000000E-01  7.20000000E-01  8.50000000E-01
  7.20000000E-01  8.50000000E-01  8.50000000E-01  7.20000000E-01  7.20000000E-01
  8.50000000E-01  7.20000000E-01  8.50000000E-01  7.20000000E-01  7.20000000E-01
  8.50000000E-01  7.20000000E-01  8.50000000E-01  8.50000000E-01  8.60000000E-01
  8.50000000E-01  8.50000000E-01  8.50000000E-01  7.20000000E-01  8.50000000E-01
  7.90000000E-01  8.50000000E-01  7.20000000E-01  8.50000000E-01  8.50000000E-01
  8.50000000E-01
%FLAG IPOL                                                                      
%FORMAT(1I8)                                                                    
       0
