ACE
    36
   2.0000010   1.0000000  -0.0000013   2.0000010   2.0900000   0.0000001
   1.4862640   2.4538490   0.8898240   1.4862590   2.4538520  -0.8898200
   3.4274200   2.6407950  -0.0000030   4.3905800   1.8774060  -0.0000066
   3.5553754   3.9696488  -0.0000032   2.7450877   4.5476236  -0.0000013
   4.8525204   4.6135571  -0.0000043   5.4939879   4.0856555  -0.6916808
   4.7376025   6.0763657  -0.4933001   5.7169757   6.5281056  -0.3776059
   4.5408827   6.0307238  -1.5601788   3.6743334   6.9283627   0.1700286
   2.3963370   7.0268162  -0.3773443   2.1799749   6.5278258  -1.3079172
   1.3943829   7.7642651   0.2299203   0.4178444   7.8534696  -0.2053786
   1.6596502   8.4461684   1.4131375   2.9421430   8.3977291   1.9461102
   3.1466196   8.9639234   2.8361076   3.9287355   7.6476917   1.3344239
   4.9168645   7.6309143   1.7643409   0.7015883   9.1159826   2.0672532
  -0.0476636  10.4581996   1.3908702  -0.7325110   9.8632655   0.1797437
  -0.9425378  10.8690001   2.5207959   1.1242912  11.3502727   1.0864883
   5.6081413   4.5066390   1.3278340   6.8041821   4.3755997   1.3281827
   4.8729391   4.5669615   2.4405172   3.8709728   4.6778635   2.3783594
   5.4692862   4.4776779   3.7580910   6.5487521   4.3611675   3.6617624
   5.2510603   5.3866899   4.3186044   5.0572836   3.6179163   4.2864506
