ACE
    26
   2.0000010   1.0000000  -0.0000013   2.0000010   2.0900000   0.0000001
   1.4862640   2.4538490   0.8898240   1.4862590   2.4538520  -0.8898200
   3.4274200   2.6407950  -0.0000030   4.3905800   1.8774060  -0.0000066
   3.5553754   3.9696488  -0.0000032   2.7430136   4.5491031  -0.0000013
   4.8578444   4.6162000  -0.0000043   5.2176684   4.7352118  -1.0139929
   4.6837842   5.9997730   0.6405202   4.5026577   5.9084606   1.7049563
   5.5929192   6.5696886   0.4966776   3.5945703   6.6003437   0.0143502
   3.3050392   8.1954513   0.3598940   2.0327800   8.4264452  -0.4090815
   3.1810452   8.1740950   1.8680947   4.5442889   8.8841966  -0.1597089
   5.9372817   3.8269031   0.7335382   7.0773225   3.8452942   0.3568927
   5.5450118   3.1269404   1.8004972   4.5756005   3.1387373   2.0836968
   6.4747106   2.3364865   2.5818069   7.4741252   2.4236783   2.1555807
   6.4858272   2.6986875   3.6098086   6.1645348   1.2916341   2.5686000
