%VERSION  VERSION_STAMP = V0001.000  DATE = 09/10/26  22:09:27                  
%FLAG TITLE                                                                     
%FORMAT(20a4)                                                                   
ACE                                                                             
%FLAG POINTERS                                                                  
%FORMAT(10I8)                                                                   
      29      10      13      15      28      21      61      48       0       0
     135       3      15      21      48      16      30      38      12       0
       0       0       0       0       0       0       0       0      17       0
       0
%FLAG ATOM_NAME                                                                 
%FORMAT(20a4)                                                                   
H1  CH3 H2  H3  C   O   N   H   CA  HA  CB  HB  CG2 HG21HG22HG23OG1 P   O1P O2P 
O3P C   O   N   H   C   H1  H2  H3  
%FLAG CHARGE                                                                    
%FORMAT(5E16.8)                                                                 
  2.04636429E+00 -6.67300626E+00  2.04636429E+00  2.04636429E+00  1.08823576E+01
 -1.03484442E+01 -9.40817349E+00  5.35006728E+00 -5.71287327E+00  3.93186212E+00
  1.13681823E+01  1.82022555E-01 -7.41292275E+00  1.30584646E+00  1.30584646E+00
  1.30584646E+00 -9.93534463E+00  2.48926640E+01 -1.75973844E+01 -1.75973844E+01
 -1.75973844E+01  9.77808618E+00 -1.06035564E+01 -7.57501011E+00  4.95464337E+00
 -2.71512270E+00  1.77849648E+00  1.77849648E+00  1.77849648E+00
%FLAG ATOMIC_NUMBER                                                             
%FORMAT(10I8)                                                                   
       1       6       1       1       6       8       7       1       6       1
       6       1       6       1       1       1       8      15       8       8
       8       6       8       7       1       6       1       1       1
%FLAG MASS                                                                      
%FORMAT(5E16.8)                                                                 
  1.00800000E+00  1.20100000E+01  1.00800000E+00  1.00800000E+00  1.20100000E+01
  1.60000000E+01  1.40100000E+01  1.00800000E+00  1.20100000E+01  1.00800000E+00
  1.20100000E+01  1.00800000E+00  1.20100000E+01  1.00800000E+00  1.00800000E+00
  1.00800000E+00  1.60000000E+01  3.09700000E+01  1.60000000E+01  1.60000000E+01
  1.60000000E+01  1.20100000E+01  1.60000000E+01  1.40100000E+01  1.00800000E+00
  1.20100000E+01  1.00800000E+00  1.00800000E+00  1.00800000E+00
%FLAG ATOM_TYPE_INDEX                                                           
%FORMAT(10I8)                                                                   
       1       2       1       1       3       4       5       6       2       7
       2       7       2       1       1       1       8       9      10      10
      10       3       4       5       6       2       7       7       7
%FLAG NUMBER_EXCLUDED_ATOMS                                                     
%FORMAT(10I8)                                                                   
       6       7       4       3       7       3      10       4      14       7
      13       7       6       3       2       1       5       3       2       1
       1       7       3       5       4       3       2       1       1
%FLAG NONBONDED_PARM_INDEX                                                      
%FORMAT(10I8)                                                                   
       1       2       4       7      11      16      22      29      37      46
       2       3       5       8      12      17      23      30      38      47
       4       5       6       9      13      18      24      31      39      48
       7       8       9      10      14      19      25      32      40      49
      11      12      13      14      15      20      26      33      41      50
      16      17      18      19      20      21      27      34      42      51
      22      23      24      25      26      27      28      35      43      52
      29      30      31      32      33      34      35      36      44      53
      37      38      39      40      41      42      43      44      45      54
      46      47      48      49      50      51      52      53      54      55
%FLAG RESIDUE_LABEL                                                             
%FORMAT(20a4)                                                                   
ACE TPO NME 
%FLAG RESIDUE_POINTER                                                           
%FORMAT(10I8)                                                                   
       1       7      24
%FLAG BOND_FORCE_CONSTANT                                                       
%FORMAT(5E16.8)                                                                 
  5.70000000E+02  4.90000000E+02  3.40000000E+02  3.17000000E+02  5.25000000E+02
  2.30000000E+02  3.40000000E+02  3.20000000E+02  3.10000000E+02  3.40000000E+02
  3.17000000E+02  3.10000000E+02  4.34000000E+02  3.37000000E+02  3.40000000E+02
  3.37000000E+02
%FLAG BOND_EQUIL_VALUE                                                          
%FORMAT(5E16.8)                                                                 
  1.22900000E+00  1.33500000E+00  1.09000000E+00  1.52200000E+00  1.48000000E+00
  1.61000000E+00  1.09000000E+00  1.41000000E+00  1.52600000E+00  1.09000000E+00
  1.52200000E+00  1.52600000E+00  1.01000000E+00  1.44900000E+00  1.09000000E+00
  1.44900000E+00
%FLAG ANGLE_FORCE_CONSTANT                                                      
%FORMAT(5E16.8)                                                                 
  8.00000000E+01  5.00000000E+01  5.00000000E+01  5.00000000E+01  3.50000000E+01
  8.00000000E+01  7.00000000E+01  5.00000000E+01  1.40000000E+02  1.00000000E+02
  5.00000000E+01  5.00000000E+01  5.00000000E+01  6.30000000E+01  1.00000000E+02
  5.00000000E+01  5.00000000E+01  5.00000000E+01  8.00000000E+01  7.00000000E+01
  5.00000000E+01  5.00000000E+01  4.00000000E+01  5.00000000E+01  5.00000000E+01
  6.30000000E+01  8.00000000E+01  3.50000000E+01  5.00000000E+01  5.00000000E+01
%FLAG ANGLE_EQUIL_VALUE                                                         
%FORMAT(5E16.8)                                                                 
  2.14501057E+00  2.09439600E+00  2.12755727E+00  1.91113635E+00  1.91113635E+00
  2.10137732E+00  2.03505478E+00  2.12755727E+00  2.09265067E+00  1.88897066E+00
  1.91113635E+00  1.91113635E+00  1.91113635E+00  1.93906163E+00  2.10312265E+00
  1.91113635E+00  1.91113635E+00  1.91113635E+00  2.10137732E+00  2.03505478E+00
  1.91113635E+00  1.91113635E+00  1.91113635E+00  2.06018753E+00  1.91113635E+00
  1.92160833E+00  1.91462701E+00  1.91113635E+00  2.06018753E+00  1.91113635E+00
%FLAG DIHEDRAL_FORCE_CONSTANT                                                   
%FORMAT(5E16.8)                                                                 
  2.00000000E+00  2.50000000E+00  0.00000000E+00  0.00000000E+00  2.70000000E-01
  4.20000000E-01  0.00000000E+00  1.80000000E+00  8.00000000E-01  8.00000000E-01
  8.00000000E-02  1.55555556E-01  0.00000000E+00  4.06000000E-01  2.89000000E-01
  1.48000000E-01  1.12000000E-01  2.00000000E-01  2.00000000E-01  4.00000000E-01
  8.92577000E-01  3.86012600E+00  1.91225300E+00  4.36101800E+00  2.01139000E-01
  1.60000000E-01  4.50000000E-01  1.58000000E+00  5.50000000E-01  2.52678500E+00
  2.86292500E+00  2.36792500E+00  3.29307000E+00  3.37000000E-01  2.16000000E-01
  1.00000000E-03  1.05000000E+01  1.10000000E+00
%FLAG DIHEDRAL_PERIODICITY                                                      
%FORMAT(5E16.8)                                                                 
  1.00000000E+00  2.00000000E+00  2.00000000E+00  1.00000000E+00  2.00000000E+00
  3.00000000E+00  4.00000000E+00  2.00000000E+00  3.00000000E+00  1.00000000E+00
  3.00000000E+00  3.00000000E+00  3.00000000E+00  1.00000000E+00  2.00000000E+00
  3.00000000E+00  4.00000000E+00  1.00000000E+00  2.00000000E+00  3.00000000E+00
  3.00000000E+00  1.00000000E+00  2.00000000E+00  3.00000000E+00  4.00000000E+00
  3.00000000E+00  1.00000000E+00  2.00000000E+00  3.00000000E+00  1.00000000E+00
  2.00000000E+00  3.00000000E+00  4.00000000E+00  1.00000000E+00  2.00000000E+00
  4.00000000E+00  2.00000000E+00  2.00000000E+00
%FLAG DIHEDRAL_PHASE                                                            
%FORMAT(5E16.8)                                                                 
  0.00000000E+00  3.14159400E+00  0.00000000E+00  0.00000000E+00  0.00000000E+00
  0.00000000E+00  0.00000000E+00  0.00000000E+00  0.00000000E+00  0.00000000E+00
  3.14159400E+00  0.00000000E+00  0.00000000E+00  3.14159400E+00  3.14159400E+00
  0.00000000E+00  0.00000000E+00  0.00000000E+00  0.00000000E+00  0.00000000E+00
  3.14159400E+00  3.14159400E+00  3.14159400E+00  0.00000000E+00  3.14159400E+00
  0.00000000E+00  3.14159400E+00  3.14159400E+00  3.14159400E+00  3.14159400E+00
  0.00000000E+00  0.00000000E+00  0.00000000E+00  0.00000000E+00  3.14159400E+00
  3.14159400E+00  3.14159400E+00  3.14159400E+00
%FLAG SCEE_SCALE_FACTOR                                                         
%FORMAT(5E16.8)                                                                 
  1.20000000E+00  1.20000000E+00  1.20000000E+00  1.20000000E+00  1.20000000E+00
  1.20000000E+00  1.20000000E+00  1.20000000E+00  1.20000000E+00  1.20000000E+00
  1.20000000E+00  1.20000000E+00  1.20000000E+00  1.20000000E+00  1.20000000E+00
  1.20000000E+00  1.20000000E+00  1.20000000E+00  1.20000000E+00  1.20000000E+00
  1.20000000E+00  1.20000000E+00  1.20000000E+00  1.20000000E+00  1.20000000E+00
  1.20000000E+00  1.20000000E+00  1.20000000E+00  1.20000000E+00  1.20000000E+00
  1.20000000E+00  1.20000000E+00  1.20000000E+00  1.20000000E+00  1.20000000E+00
  1.20000000E+00  0.00000000E+00  0.00000000E+00
%FLAG SCNB_SCALE_FACTOR                                                         
%FORMAT(5E16.8)                                                                 
  2.00000000E+00  2.00000000E+00  2.00000000E+00  2.00000000E+00  2.00000000E+00
  2.00000000E+00  2.00000000E+00  2.00000000E+00  2.00000000E+00  2.00000000E+00
  2.00000000E+00  2.00000000E+00  2.00000000E+00  2.00000000E+00  2.00000000E+00
  2.00000000E+00  2.00000000E+00  2.00000000E+00  2.00000000E+00  2.00000000E+00
  2.00000000E+00  2.00000000E+00  2.00000000E+00  2.00000000E+00  2.00000000E+00
  2.00000000E+00  2.00000000E+00  2.00000000E+00  2.00000000E+00  2.00000000E+00
  2.00000000E+00  2.00000000E+00  2.00000000E+00  2.00000000E+00  2.00000000E+00
  2.00000000E+00  0.00000000E+00  0.00000000E+00
%FLAG SOLTY                                                                     
%FORMAT(5E16.8)                                                                 
  0.00000000E+00  0.00000000E+00  0.00000000E+00  0.00000000E+00  0.00000000E+00
  0.00000000E+00  0.00000000E+00  0.00000000E+00  0.00000000E+00  0.00000000E+00
  0.00000000E+00  0.00000000E+00
%FLAG LENNARD_JONES_ACOEF                                                       
%FORMAT(5E16.8)                                                                 
  7.51607703E+03  9.71708117E+04  1.04308023E+06  8.61541883E+04  9.24822270E+05
  8.19971662E+05  5.44261042E+04  6.47841731E+05  5.74393458E+05  3.79876399E+05
  8.96776989E+04  9.95480466E+05  8.82619071E+05  6.06829342E+05  9.44293233E+05
  1.07193646E+02  2.56678134E+03  2.27577561E+03  1.02595236E+03  2.12601181E+03
  1.39982777E-01  4.98586848E+03  6.78771368E+04  6.01816484E+04  3.69471530E+04
  6.20665997E+04  5.94667300E+01  3.25969625E+03  1.03059887E+05  1.12631192E+06
  9.98617666E+05  6.92578687E+05  1.07142345E+06  2.56980866E+03  7.16363022E+04
  1.21407091E+06  2.54238516E+05  2.54188684E+06  2.25370349E+06  1.64263766E+06
  2.45746558E+06  8.41065839E+03  1.81087383E+05  2.76377243E+06  6.02589390E+06
  1.05645189E+05  1.16507086E+06  1.03298236E+06  7.12805727E+05  1.10647581E+06
  2.55829707E+03  7.32501560E+04  1.25474774E+06  2.86887468E+06  1.29621292E+06
%FLAG LENNARD_JONES_BCOEF                                                       
%FORMAT(5E16.8)                                                                 
  2.17257828E+01  1.26919150E+02  6.75612247E+02  1.12529845E+02  5.99015525E+02
  5.31102864E+02  1.11805549E+02  6.26720080E+02  5.55666448E+02  5.64885984E+02
  1.36131731E+02  7.36907417E+02  6.53361429E+02  6.77220874E+02  8.01323529E+02
  2.59456373E+00  2.06278363E+01  1.82891803E+01  1.53505284E+01  2.09604198E+01
  9.37598976E-02  1.76949863E+01  1.06076943E+02  9.40505980E+01  9.21192136E+01
  1.13252061E+02  1.93248820E+00  1.43076527E+01  1.45935843E+02  7.83837246E+02
  6.94970646E+02  7.23488465E+02  8.53561916E+02  2.30445129E+01  1.21670059E+02
  9.08607846E+02  2.38716853E+02  1.22636552E+03  1.08732781E+03  1.16041466E+03
  1.34630496E+03  4.34187588E+01  2.01468199E+02  1.42774571E+03  2.19561270E+03
  1.55770278E+02  8.40456655E+02  7.45170897E+02  7.73793778E+02  9.14466943E+02
  2.42401453E+01  1.29707178E+02  9.73812310E+02  1.53355059E+03  1.04346483E+03
%FLAG BONDS_INC_HYDROGEN                                                        
%FORMAT(10I8)                                                                   
       3       6       3       3       9       3       0       3       3      36
      42       3      36      39       3      36      45       3      30      33
       7      24      27      10      18      21      13      75      78      15
      75      81      15      75      84      15      69      72      13
%FLAG BONDS_WITHOUT_HYDROGEN                                                    
%FORMAT(10I8)                                                                   
      12      15       1      12      18       2       3      12       4      63
      66       1      63      69       2      51      57       5      51      54
       5      51      60       5      48      51       6      30      48       8
      30      36       9      24      63      11      24      30      12      18
      24      14      69      75      16
%FLAG ANGLES_INC_HYDROGEN                                                       
%FORMAT(10I8)                                                                   
      12      18      21       2       9       3      12       4       6       3
       9       5       6       3      12       4       0       3       6       5
       0       3       9       5       0       3      12       4      63      69
      72       2      42      36      45       5      39      36      42       5
      39      36      45       5      33      30      48      12      33      30
      36      13      30      36      42      16      30      36      39      16
      30      36      45      16      27      24      63      17      27      24
      30      18      24      30      33      21      21      18      24      24
      18      24      27      25      81      75      84      28      78      75
      81      28      78      75      84      28      72      69      75      29
      69      75      78      30      69      75      81      30      69      75
      84      30
%FLAG ANGLES_WITHOUT_HYDROGEN                                                   
%FORMAT(10I8)                                                                   
      15      12      18       1      12      18      24       3       3      12
      15       6       3      12      18       7      66      63      69       1
      63      69      75       8      57      51      60       9      54      51
      57       9      54      51      60       9      48      51      57      10
      48      51      54      10      48      51      60      10      36      30
      48      11      30      24      63      14      30      48      51      15
      24      63      66      19      24      63      69      20      24      30
      48      22      24      30      36      23      18      24      63      26
      18      24      30      27
%FLAG DIHEDRALS_INC_HYDROGEN                                                    
%FORMAT(10I8)                                                                   
      15      12      18      21       1      15      12     -18      21       2
      12      18      24      27       3       9       3      12      15      10
       9       3     -12      15       3       9       3     -12      15      11
       9       3      12      18       3       6       3      12      15      10
       6       3     -12      15       3       6       3     -12      15      11
       6       3      12      18       3       3      12      18      21       2
       0       3      12      15      10       0       3     -12      15       3
       0       3     -12      15      11       0       3      12      18       3
      66      63      69      72       1      66      63     -69      72       2
      63      69      75      78       3      63      69      75      81       3
      63      69      75      84       3      45      36      30      48       4
      45      36     -30      48       3      45      36     -30      48      13
      45      36     -30      48       7      42      36      30      48       4
      42      36     -30      48       3      42      36     -30      48      13
      42      36     -30      48       7      39      36      30      48       4
      39      36     -30      48       3      39      36     -30      48      13
      39      36     -30      48       7      33      30      24      63      12
      33      30      48      51       4      33      30     -48      51       3
      33      30     -48      51      13      33      30     -48      51       7
      33      30      36      42      12      33      30      36      39      12
      33      30      36      45      12      27      24      63      66      10
      27      24     -63      66       3      27      24     -63      66      11
      27      24      63      69       3      27      24      30      33      12
      27      24      30      48      12      27      24      30      36      12
      24      63      69      72       2      24      30      36      42      26
      24      30      36      39      26      24      30      36      45      26
      21      18      24      27       3      21      18      24      63       3
      21      18      24      30       3      18      24      30      33      12
      72      69      75      78       3      72      69      75      81       3
      72      69      75      84       3      12      24     -18     -21      38
      63      75     -69     -72      38
%FLAG DIHEDRALS_WITHOUT_HYDROGEN                                                
%FORMAT(10I8)                                                                   
      15      12      18      24       2      12      18      24      63       4
      12      18     -24      63       5      12      18     -24      63       6
      12      18     -24      63       7      12      18      24      30       1
      12      18     -24      30       8      12      18     -24      30       9
      12      18     -24      30       7       3      12      18      24       2
      66      63      69      75       2      48      30      24      63      12
      36      30      24      63      14      36      30     -24      63      15
      36      30     -24      63      16      36      30     -24      63      17
      36      30      48      51       4      36      30     -48      51       3
      36      30     -48      51      13      36      30     -48      51       7
      30      24      63      66       3      30      24      63      69      18
      30      24     -63      69      19      30      24     -63      69      20
      30      24     -63      69       7      30      48      51      57      21
      30      48      51      54      21      30      48      51      60      21
      24      63      69      75       2      24      30      48      51      22
      24      30     -48      51      23      24      30     -48      51      24
      24      30     -48      51      25      18      24      63      66       3
      18      24      63      69      27      18      24     -63      69      28
      18      24     -63      69      29      18      24     -63      69       7
      18      24      30      48      30      18      24     -30      48      31
      18      24     -30      48      32      18      24     -30      48      33
      18      24      30      36      34      18      24     -30      36      35
      18      24     -30      36      16      18      24     -30      36      36
       3      18     -12     -15      37      24      69     -63     -66      37
%FLAG EXCLUDED_ATOMS_LIST                                                       
%FORMAT(10I8)                                                                   
       2       3       4       5       6       7       3       4       5       6
       7       8       9       4       5       6       7       5       6       7
       6       7       8       9      10      11      22       7       8       9
       8       9      10      11      12      13      17      22      23      24
       9      10      11      22      10      11      12      13      14      15
      16      17      18      22      23      24      25      26      11      12
      13      17      22      23      24      12      13      14      15      16
      17      18      19      20      21      22      23      24      13      14
      15      16      17      18      22      14      15      16      17      18
      22      15      16      17      16      17      17      18      19      20
      21      22      19      20      21      20      21      21       0      23
      24      25      26      27      28      29      24      25      26      25
      26      27      28      29      26      27      28      29      27      28
      29      28      29      29       0
%FLAG HBOND_ACOEF                                                               
%FORMAT(5E16.8)                                                                 

%FLAG HBOND_BCOEF                                                               
%FORMAT(5E16.8)                                                                 

%FLAG HBCUT                                                                     
%FORMAT(5E16.8)                                                                 

%FLAG AMBER_ATOM_TYPE                                                           
%FORMAT(20a4)                                                                   
HC  CT  HC  HC  C   O   N   H   CX  H1  3C  H1  CT  HC  HC  HC  OZ  P   OX  OX  
OX  C   O   N   H   CT  H1  H1  H1  
%FLAG TREE_CHAIN_CLASSIFICATION                                                 
%FORMAT(20a4)                                                                   
M   M   E   E   M   E   M   E   M   E   3   E   3   E   E   E   S   3   E   E   
E   M   E   M   E   M   E   E   E   
%FLAG JOIN_ARRAY                                                                
%FORMAT(10I8)                                                                   
       0       0       0       0       0       0       0       0       0       0
       0       0       0       0       0       0       0       0       0       0
       0       0       0       0       0       0       0       0       0
%FLAG IROTAT                                                                    
%FORMAT(10I8)                                                                   
       0       0       0       0       0       0       0       0       0       0
       0       0       0       0       0       0       0       0       0       0
       0       0       0       0       0       0       0       0       0
%FLAG RADIUS_SET                                                                
%FORMAT(1a80)                                                                   
modified Bondi radii (mbondi)                                                   
%FLAG RADII                                                                     
%FORMAT(5E16.8)                                                                 
  1.30000000E+00  1.70000000E+00  1.30000000E+00  1.30000000E+00  1.70000000E+00
  1.50000000E+00  1.55000000E+00  1.30000000E+00  1.70000000E+00  1.30000000E+00
  1.70000000E+00  1.30000000E+00  1.70000000E+00  1.30000000E+00  1.30000000E+00
  1.30000000E+00  1.50000000E+00  1.85000000E+00  1.50000000E+00  1.50000000E+00
  1.50000000E+00  1.70000000E+00  1.50000000E+00  1.55000000E+00  1.30000000E+00
  1.70000000E+00  1.30000000E+00  1.30000000E+00  1.30000000E+00
%FLAG SCREEN                                                                    
%FORMAT(5E16.8)                                                                 
  8.50000000E-01  7.20000000E-01  8.50000000E-01  8.50000000E-01  7.20000000E-01
  8.50000000E-01  7.90000000E-01  8.50000000E-01  7.20000000E-01  8.50000000E-01
  7.20000000E-01  8.50000000E-01  7.20000000E-01  8.50000000E-01  8.50000000E-01
  8.50000000E-01  8.50000000E-01  8.60000000E-01  8.50000000E-01  8.50000000E-01
  8.50000000E-01  7.20000000E-01  8.50000000E-01  7.90000000E-01  8.50000000E-01
  7.20000000E-01  8.50000000E-01  8.50000000E-01  8.50000000E-01
%FLAG IPOL                                                                      
%FORMAT(1I8)                                                                    
       0
