ACE
    29
   2.0000010   1.0000000  -0.0000013   2.0000010   2.0900000   0.0000001
   1.4862640   2.4538490   0.8898240   1.4862590   2.4538520  -0.8898200
   3.4274200   2.6407950  -0.0000030   4.3905800   1.8774060  -0.0000066
   3.5553754   3.9696488  -0.0000032   2.7445395   4.5480147  -0.0000013
   4.8675198   4.6210028  -0.0000043   5.2425844   4.7042140  -1.0095450
   4.6732163   6.0686515   0.5150439   3.8104521   6.4400725  -0.0299931
   4.4041814   6.2143639   2.0097121   4.2155535   7.2621354   2.2080157
   5.2643765   5.9045240   2.5896368   3.5426552   5.6322721   2.3317303
   5.7919948   6.8121405   0.1647032   5.4474179   7.9678320  -0.9742090
   4.3902868   8.8022192  -0.2748951   6.7769752   8.6222053  -1.1999394
   4.8932841   7.1294204  -2.1130399   5.9168552   3.8044919   0.7565821
   7.0523723   3.7464406   0.3791489   5.5008310   3.1650858   1.8521681
   4.5359571   3.2355487   2.1422588   6.3978864   2.3590739   2.6554356
   7.3962310   2.3805936   2.2184623   6.4367673   2.7582994   3.6689482
   6.0364254   1.3311489   2.6840059
